 0.1230672E+0002    0.0000000E+0000    0.0000000E+0000    0.0000000E+0000    0.1230672E+0002    0.0000000E+0000    0.0000000E+0000    0.0000000E+0000    0.1230672E+0002
 0.1217288E+0002    0.0000000E+0000    0.0000000E+0000    0.0000000E+0000    0.1217288E+0002    0.0000000E+0000    0.0000000E+0000    0.0000000E+0000    0.1217288E+0002
 0.1226875E+0002    0.0000000E+0000    0.0000000E+0000    0.0000000E+0000    0.1226875E+0002    0.0000000E+0000    0.0000000E+0000    0.0000000E+0000    0.1226875E+0002
 0.1224795E+0002    0.0000000E+0000    0.0000000E+0000    0.0000000E+0000    0.1224795E+0002    0.0000000E+0000    0.0000000E+0000    0.0000000E+0000    0.1224795E+0002
 0.1255713E+0002    0.0000000E+0000    0.0000000E+0000    0.0000000E+0000    0.1255713E+0002    0.0000000E+0000    0.0000000E+0000    0.0000000E+0000    0.1255713E+0002
 0.1262396E+0002    0.0000000E+0000    0.0000000E+0000    0.0000000E+0000    0.1262396E+0002    0.0000000E+0000    0.0000000E+0000    0.0000000E+0000    0.1262396E+0002
 0.1235971E+0002    0.0000000E+0000    0.0000000E+0000    0.0000000E+0000    0.1235971E+0002    0.0000000E+0000    0.0000000E+0000    0.0000000E+0000    0.1235971E+0002
 0.1229149E+0002    0.0000000E+0000    0.0000000E+0000    0.0000000E+0000    0.1229149E+0002    0.0000000E+0000    0.0000000E+0000    0.0000000E+0000    0.1229149E+0002
 0.1230426E+0002    0.0000000E+0000    0.0000000E+0000    0.0000000E+0000    0.1230426E+0002    0.0000000E+0000    0.0000000E+0000    0.0000000E+0000    0.1230426E+0002
 0.1252959E+0002    0.0000000E+0000    0.0000000E+0000    0.0000000E+0000    0.1252959E+0002    0.0000000E+0000    0.0000000E+0000    0.0000000E+0000    0.1252959E+0002
 0.1221561E+0002    0.0000000E+0000    0.0000000E+0000    0.0000000E+0000    0.1221561E+0002    0.0000000E+0000    0.0000000E+0000    0.0000000E+0000    0.1221561E+0002
 0.1224660E+0002    0.0000000E+0000    0.0000000E+0000    0.0000000E+0000    0.1224660E+0002    0.0000000E+0000    0.0000000E+0000    0.0000000E+0000    0.1224660E+0002
 0.1214393E+0002    0.0000000E+0000    0.0000000E+0000    0.0000000E+0000    0.1214393E+0002    0.0000000E+0000    0.0000000E+0000    0.0000000E+0000    0.1214393E+0002
 0.1228982E+0002    0.0000000E+0000    0.0000000E+0000    0.0000000E+0000    0.1228982E+0002    0.0000000E+0000    0.0000000E+0000    0.0000000E+0000    0.1228982E+0002
 0.1208661E+0002    0.0000000E+0000    0.0000000E+0000    0.0000000E+0000    0.1208661E+0002    0.0000000E+0000    0.0000000E+0000    0.0000000E+0000    0.1208661E+0002
 0.1219029E+0002    0.0000000E+0000    0.0000000E+0000    0.0000000E+0000    0.1219029E+0002    0.0000000E+0000    0.0000000E+0000    0.0000000E+0000    0.1219029E+0002
 0.1250466E+0002    0.0000000E+0000    0.0000000E+0000    0.0000000E+0000    0.1250466E+0002    0.0000000E+0000    0.0000000E+0000    0.0000000E+0000    0.1250466E+0002
 0.1253608E+0002    0.0000000E+0000    0.0000000E+0000    0.0000000E+0000    0.1253608E+0002    0.0000000E+0000    0.0000000E+0000    0.0000000E+0000    0.1253608E+0002
 0.1224878E+0002    0.0000000E+0000    0.0000000E+0000    0.0000000E+0000    0.1224878E+0002    0.0000000E+0000    0.0000000E+0000    0.0000000E+0000    0.1224878E+0002
 0.1252832E+0002    0.0000000E+0000    0.0000000E+0000    0.0000000E+0000    0.1252832E+0002    0.0000000E+0000    0.0000000E+0000    0.0000000E+0000    0.1252832E+0002
 0.1220052E+0002    0.0000000E+0000    0.0000000E+0000    0.0000000E+0000    0.1220052E+0002    0.0000000E+0000    0.0000000E+0000    0.0000000E+0000    0.1220052E+0002
 0.1214961E+0002    0.0000000E+0000    0.0000000E+0000    0.0000000E+0000    0.1214961E+0002    0.0000000E+0000    0.0000000E+0000    0.0000000E+0000    0.1214961E+0002
 0.1219967E+0002    0.0000000E+0000    0.0000000E+0000    0.0000000E+0000    0.1219967E+0002    0.0000000E+0000    0.0000000E+0000    0.0000000E+0000    0.1219967E+0002
 0.1253107E+0002    0.0000000E+0000    0.0000000E+0000    0.0000000E+0000    0.1253107E+0002    0.0000000E+0000    0.0000000E+0000    0.0000000E+0000    0.1253107E+0002
 0.1232511E+0002    0.0000000E+0000    0.0000000E+0000    0.0000000E+0000    0.1232511E+0002    0.0000000E+0000    0.0000000E+0000    0.0000000E+0000    0.1232511E+0002
 0.1250669E+0002    0.0000000E+0000    0.0000000E+0000    0.0000000E+0000    0.1250669E+0002    0.0000000E+0000    0.0000000E+0000    0.0000000E+0000    0.1250669E+0002
 0.1230800E+0002    0.0000000E+0000    0.0000000E+0000    0.0000000E+0000    0.1230800E+0002    0.0000000E+0000    0.0000000E+0000    0.0000000E+0000    0.1230800E+0002
 0.1220447E+0002    0.0000000E+0000    0.0000000E+0000    0.0000000E+0000    0.1220447E+0002    0.0000000E+0000    0.0000000E+0000    0.0000000E+0000    0.1220447E+0002
 0.1234731E+0002    0.0000000E+0000    0.0000000E+0000    0.0000000E+0000    0.1234731E+0002    0.0000000E+0000    0.0000000E+0000    0.0000000E+0000    0.1234731E+0002
 0.1218323E+0002    0.0000000E+0000    0.0000000E+0000    0.0000000E+0000    0.1218323E+0002    0.0000000E+0000    0.0000000E+0000    0.0000000E+0000    0.1218323E+0002
 0.1239926E+0002    0.0000000E+0000    0.0000000E+0000    0.0000000E+0000    0.1239926E+0002    0.0000000E+0000    0.0000000E+0000    0.0000000E+0000    0.1239926E+0002
 0.1241930E+0002    0.0000000E+0000    0.0000000E+0000    0.0000000E+0000    0.1241930E+0002    0.0000000E+0000    0.0000000E+0000    0.0000000E+0000    0.1241930E+0002
 0.1234890E+0002    0.0000000E+0000    0.0000000E+0000    0.0000000E+0000    0.1234890E+0002    0.0000000E+0000    0.0000000E+0000    0.0000000E+0000    0.1234890E+0002
 0.1240357E+0002    0.0000000E+0000    0.0000000E+0000    0.0000000E+0000    0.1240357E+0002    0.0000000E+0000    0.0000000E+0000    0.0000000E+0000    0.1240357E+0002
 0.1230232E+0002    0.0000000E+0000    0.0000000E+0000    0.0000000E+0000    0.1230232E+0002    0.0000000E+0000    0.0000000E+0000    0.0000000E+0000    0.1230232E+0002
 0.1219280E+0002    0.0000000E+0000    0.0000000E+0000    0.0000000E+0000    0.1219280E+0002    0.0000000E+0000    0.0000000E+0000    0.0000000E+0000    0.1219280E+0002
 0.1223841E+0002    0.0000000E+0000    0.0000000E+0000    0.0000000E+0000    0.1223841E+0002    0.0000000E+0000    0.0000000E+0000    0.0000000E+0000    0.1223841E+0002
 0.1226816E+0002    0.0000000E+0000    0.0000000E+0000    0.0000000E+0000    0.1226816E+0002    0.0000000E+0000    0.0000000E+0000    0.0000000E+0000    0.1226816E+0002
 0.1224508E+0002    0.0000000E+0000    0.0000000E+0000    0.0000000E+0000    0.1224508E+0002    0.0000000E+0000    0.0000000E+0000    0.0000000E+0000    0.1224508E+0002
 0.1239698E+0002    0.0000000E+0000    0.0000000E+0000    0.0000000E+0000    0.1239698E+0002    0.0000000E+0000    0.0000000E+0000    0.0000000E+0000    0.1239698E+0002
 0.1222405E+0002    0.0000000E+0000    0.0000000E+0000    0.0000000E+0000    0.1222405E+0002    0.0000000E+0000    0.0000000E+0000    0.0000000E+0000    0.1222405E+0002
 0.1236333E+0002    0.0000000E+0000    0.0000000E+0000    0.0000000E+0000    0.1236333E+0002    0.0000000E+0000    0.0000000E+0000    0.0000000E+0000    0.1236333E+0002
 0.1239698E+0002    0.0000000E+0000    0.0000000E+0000    0.0000000E+0000    0.1239698E+0002    0.0000000E+0000    0.0000000E+0000    0.0000000E+0000    0.1239698E+0002
 0.1224426E+0002    0.0000000E+0000    0.0000000E+0000    0.0000000E+0000    0.1224426E+0002    0.0000000E+0000    0.0000000E+0000    0.0000000E+0000    0.1224426E+0002
 0.1224734E+0002    0.0000000E+0000    0.0000000E+0000    0.0000000E+0000    0.1224734E+0002    0.0000000E+0000    0.0000000E+0000    0.0000000E+0000    0.1224734E+0002
 0.1230448E+0002    0.0000000E+0000    0.0000000E+0000    0.0000000E+0000    0.1230448E+0002    0.0000000E+0000    0.0000000E+0000    0.0000000E+0000    0.1230448E+0002
 0.1216233E+0002    0.0000000E+0000    0.0000000E+0000    0.0000000E+0000    0.1216233E+0002    0.0000000E+0000    0.0000000E+0000    0.0000000E+0000    0.1216233E+0002
 0.1238345E+0002    0.0000000E+0000    0.0000000E+0000    0.0000000E+0000    0.1238345E+0002    0.0000000E+0000    0.0000000E+0000    0.0000000E+0000    0.1238345E+0002
 0.1220756E+0002    0.0000000E+0000    0.0000000E+0000    0.0000000E+0000    0.1220756E+0002    0.0000000E+0000    0.0000000E+0000    0.0000000E+0000    0.1220756E+0002
 0.1246604E+0002    0.0000000E+0000    0.0000000E+0000    0.0000000E+0000    0.1246604E+0002    0.0000000E+0000    0.0000000E+0000    0.0000000E+0000    0.1246604E+0002
 0.1221561E+0002    0.0000000E+0000    0.0000000E+0000    0.0000000E+0000    0.1221561E+0002    0.0000000E+0000    0.0000000E+0000    0.0000000E+0000    0.1221561E+0002
 0.1244122E+0002    0.0000000E+0000    0.0000000E+0000    0.0000000E+0000    0.1244122E+0002    0.0000000E+0000    0.0000000E+0000    0.0000000E+0000    0.1244122E+0002
 0.1217792E+0002    0.0000000E+0000    0.0000000E+0000    0.0000000E+0000    0.1217792E+0002    0.0000000E+0000    0.0000000E+0000    0.0000000E+0000    0.1217792E+0002
 0.1220630E+0002    0.0000000E+0000    0.0000000E+0000    0.0000000E+0000    0.1220630E+0002    0.0000000E+0000    0.0000000E+0000    0.0000000E+0000    0.1220630E+0002
 0.1228463E+0002    0.0000000E+0000    0.0000000E+0000    0.0000000E+0000    0.1228463E+0002    0.0000000E+0000    0.0000000E+0000    0.0000000E+0000    0.1228463E+0002
 0.1233154E+0002    0.0000000E+0000    0.0000000E+0000    0.0000000E+0000    0.1233154E+0002    0.0000000E+0000    0.0000000E+0000    0.0000000E+0000    0.1233154E+0002
 0.1224208E+0002    0.0000000E+0000    0.0000000E+0000    0.0000000E+0000    0.1224208E+0002    0.0000000E+0000    0.0000000E+0000    0.0000000E+0000    0.1224208E+0002
 0.1217142E+0002    0.0000000E+0000    0.0000000E+0000    0.0000000E+0000    0.1217142E+0002    0.0000000E+0000    0.0000000E+0000    0.0000000E+0000    0.1217142E+0002
 0.1219660E+0002    0.0000000E+0000    0.0000000E+0000    0.0000000E+0000    0.1219660E+0002    0.0000000E+0000    0.0000000E+0000    0.0000000E+0000    0.1219660E+0002
 0.1238345E+0002    0.0000000E+0000    0.0000000E+0000    0.0000000E+0000    0.1238345E+0002    0.0000000E+0000    0.0000000E+0000    0.0000000E+0000    0.1238345E+0002
 0.1248219E+0002    0.0000000E+0000    0.0000000E+0000    0.0000000E+0000    0.1248219E+0002    0.0000000E+0000    0.0000000E+0000    0.0000000E+0000    0.1248219E+0002
 0.1219900E+0002    0.0000000E+0000    0.0000000E+0000    0.0000000E+0000    0.1219900E+0002    0.0000000E+0000    0.0000000E+0000    0.0000000E+0000    0.1219900E+0002
 0.1208706E+0002    0.0000000E+0000    0.0000000E+0000    0.0000000E+0000    0.1208706E+0002    0.0000000E+0000    0.0000000E+0000    0.0000000E+0000    0.1208706E+0002
 0.1225398E+0002    0.0000000E+0000    0.0000000E+0000    0.0000000E+0000    0.1225398E+0002    0.0000000E+0000    0.0000000E+0000    0.0000000E+0000    0.1225398E+0002
 0.1218229E+0002    0.0000000E+0000    0.0000000E+0000    0.0000000E+0000    0.1218229E+0002    0.0000000E+0000    0.0000000E+0000    0.0000000E+0000    0.1218229E+0002
 0.1220450E+0002    0.0000000E+0000    0.0000000E+0000    0.0000000E+0000    0.1220450E+0002    0.0000000E+0000    0.0000000E+0000    0.0000000E+0000    0.1220450E+0002
 0.1250449E+0002    0.0000000E+0000    0.0000000E+0000    0.0000000E+0000    0.1250449E+0002    0.0000000E+0000    0.0000000E+0000    0.0000000E+0000    0.1250449E+0002
 0.1220501E+0002    0.0000000E+0000    0.0000000E+0000    0.0000000E+0000    0.1220501E+0002    0.0000000E+0000    0.0000000E+0000    0.0000000E+0000    0.1220501E+0002
 0.1213792E+0002    0.0000000E+0000    0.0000000E+0000    0.0000000E+0000    0.1213792E+0002    0.0000000E+0000    0.0000000E+0000    0.0000000E+0000    0.1213792E+0002
 0.1238252E+0002    0.0000000E+0000    0.0000000E+0000    0.0000000E+0000    0.1238252E+0002    0.0000000E+0000    0.0000000E+0000    0.0000000E+0000    0.1238252E+0002
 0.1250415E+0002    0.0000000E+0000    0.0000000E+0000    0.0000000E+0000    0.1250415E+0002    0.0000000E+0000    0.0000000E+0000    0.0000000E+0000    0.1250415E+0002
 0.1218604E+0002    0.0000000E+0000    0.0000000E+0000    0.0000000E+0000    0.1218604E+0002    0.0000000E+0000    0.0000000E+0000    0.0000000E+0000    0.1218604E+0002
 0.1239394E+0002    0.0000000E+0000    0.0000000E+0000    0.0000000E+0000    0.1239394E+0002    0.0000000E+0000    0.0000000E+0000    0.0000000E+0000    0.1239394E+0002
 0.1245241E+0002    0.0000000E+0000    0.0000000E+0000    0.0000000E+0000    0.1245241E+0002    0.0000000E+0000    0.0000000E+0000    0.0000000E+0000    0.1245241E+0002
 0.1227068E+0002    0.0000000E+0000    0.0000000E+0000    0.0000000E+0000    0.1227068E+0002    0.0000000E+0000    0.0000000E+0000    0.0000000E+0000    0.1227068E+0002
 0.1218285E+0002    0.0000000E+0000    0.0000000E+0000    0.0000000E+0000    0.1218285E+0002    0.0000000E+0000    0.0000000E+0000    0.0000000E+0000    0.1218285E+0002
 0.1252757E+0002    0.0000000E+0000    0.0000000E+0000    0.0000000E+0000    0.1252757E+0002    0.0000000E+0000    0.0000000E+0000    0.0000000E+0000    0.1252757E+0002
 0.1224208E+0002    0.0000000E+0000    0.0000000E+0000    0.0000000E+0000    0.1224208E+0002    0.0000000E+0000    0.0000000E+0000    0.0000000E+0000    0.1224208E+0002
 0.1226433E+0002    0.0000000E+0000    0.0000000E+0000    0.0000000E+0000    0.1226433E+0002    0.0000000E+0000    0.0000000E+0000    0.0000000E+0000    0.1226433E+0002
 0.1243193E+0002    0.0000000E+0000    0.0000000E+0000    0.0000000E+0000    0.1243193E+0002    0.0000000E+0000    0.0000000E+0000    0.0000000E+0000    0.1243193E+0002
 0.1216315E+0002    0.0000000E+0000    0.0000000E+0000    0.0000000E+0000    0.1216315E+0002    0.0000000E+0000    0.0000000E+0000    0.0000000E+0000    0.1216315E+0002
 0.1228639E+0002    0.0000000E+0000    0.0000000E+0000    0.0000000E+0000    0.1228639E+0002    0.0000000E+0000    0.0000000E+0000    0.0000000E+0000    0.1228639E+0002
 0.1234058E+0002    0.0000000E+0000    0.0000000E+0000    0.0000000E+0000    0.1234058E+0002    0.0000000E+0000    0.0000000E+0000    0.0000000E+0000    0.1234058E+0002
 0.1220998E+0002    0.0000000E+0000    0.0000000E+0000    0.0000000E+0000    0.1220998E+0002    0.0000000E+0000    0.0000000E+0000    0.0000000E+0000    0.1220998E+0002
 0.1255713E+0002    0.0000000E+0000    0.0000000E+0000    0.0000000E+0000    0.1255713E+0002    0.0000000E+0000    0.0000000E+0000    0.0000000E+0000    0.1255713E+0002
 0.1239442E+0002    0.0000000E+0000    0.0000000E+0000    0.0000000E+0000    0.1239442E+0002    0.0000000E+0000    0.0000000E+0000    0.0000000E+0000    0.1239442E+0002
 0.1217460E+0002    0.0000000E+0000    0.0000000E+0000    0.0000000E+0000    0.1217460E+0002    0.0000000E+0000    0.0000000E+0000    0.0000000E+0000    0.1217460E+0002
 0.1217467E+0002    0.0000000E+0000    0.0000000E+0000    0.0000000E+0000    0.1217467E+0002    0.0000000E+0000    0.0000000E+0000    0.0000000E+0000    0.1217467E+0002
 0.1252744E+0002    0.0000000E+0000    0.0000000E+0000    0.0000000E+0000    0.1252744E+0002    0.0000000E+0000    0.0000000E+0000    0.0000000E+0000    0.1252744E+0002
 0.1232363E+0002    0.0000000E+0000    0.0000000E+0000    0.0000000E+0000    0.1232363E+0002    0.0000000E+0000    0.0000000E+0000    0.0000000E+0000    0.1232363E+0002
 0.1245194E+0002    0.0000000E+0000    0.0000000E+0000    0.0000000E+0000    0.1245194E+0002    0.0000000E+0000    0.0000000E+0000    0.0000000E+0000    0.1245194E+0002
 0.1239682E+0002    0.0000000E+0000    0.0000000E+0000    0.0000000E+0000    0.1239682E+0002    0.0000000E+0000    0.0000000E+0000    0.0000000E+0000    0.1239682E+0002
 0.1241630E+0002    0.0000000E+0000    0.0000000E+0000    0.0000000E+0000    0.1241630E+0002    0.0000000E+0000    0.0000000E+0000    0.0000000E+0000    0.1241630E+0002
 0.1232409E+0002    0.0000000E+0000    0.0000000E+0000    0.0000000E+0000    0.1232409E+0002    0.0000000E+0000    0.0000000E+0000    0.0000000E+0000    0.1232409E+0002
 0.1225975E+0002    0.0000000E+0000    0.0000000E+0000    0.0000000E+0000    0.1225975E+0002    0.0000000E+0000    0.0000000E+0000    0.0000000E+0000    0.1225975E+0002
 0.1255712E+0002    0.0000000E+0000    0.0000000E+0000    0.0000000E+0000    0.1255712E+0002    0.0000000E+0000    0.0000000E+0000    0.0000000E+0000    0.1255712E+0002
 0.1239326E+0002    0.0000000E+0000    0.0000000E+0000    0.0000000E+0000    0.1239326E+0002    0.0000000E+0000    0.0000000E+0000    0.0000000E+0000    0.1239326E+0002
 0.1236024E+0002    0.0000000E+0000    0.0000000E+0000    0.0000000E+0000    0.1236024E+0002    0.0000000E+0000    0.0000000E+0000    0.0000000E+0000    0.1236024E+0002
 0.1218323E+0002    0.0000000E+0000    0.0000000E+0000    0.0000000E+0000    0.1218323E+0002    0.0000000E+0000    0.0000000E+0000    0.0000000E+0000    0.1218323E+0002
 0.1234303E+0002    0.0000000E+0000    0.0000000E+0000    0.0000000E+0000    0.1234303E+0002    0.0000000E+0000    0.0000000E+0000    0.0000000E+0000    0.1234303E+0002
 0.1228639E+0002    0.0000000E+0000    0.0000000E+0000    0.0000000E+0000    0.1228639E+0002    0.0000000E+0000    0.0000000E+0000    0.0000000E+0000    0.1228639E+0002
 0.1233319E+0002    0.0000000E+0000    0.0000000E+0000    0.0000000E+0000    0.1233319E+0002    0.0000000E+0000    0.0000000E+0000    0.0000000E+0000    0.1233319E+0002
 0.1223568E+0002    0.0000000E+0000    0.0000000E+0000    0.0000000E+0000    0.1223568E+0002    0.0000000E+0000    0.0000000E+0000    0.0000000E+0000    0.1223568E+0002
 0.1215951E+0002    0.0000000E+0000    0.0000000E+0000    0.0000000E+0000    0.1215951E+0002    0.0000000E+0000    0.0000000E+0000    0.0000000E+0000    0.1215951E+0002
 0.1223918E+0002    0.0000000E+0000    0.0000000E+0000    0.0000000E+0000    0.1223918E+0002    0.0000000E+0000    0.0000000E+0000    0.0000000E+0000    0.1223918E+0002
 0.1239426E+0002    0.0000000E+0000    0.0000000E+0000    0.0000000E+0000    0.1239426E+0002    0.0000000E+0000    0.0000000E+0000    0.0000000E+0000    0.1239426E+0002
 0.1221802E+0002    0.0000000E+0000    0.0000000E+0000    0.0000000E+0000    0.1221802E+0002    0.0000000E+0000    0.0000000E+0000    0.0000000E+0000    0.1221802E+0002
 0.1219588E+0002    0.0000000E+0000    0.0000000E+0000    0.0000000E+0000    0.1219588E+0002    0.0000000E+0000    0.0000000E+0000    0.0000000E+0000    0.1219588E+0002
 0.1239849E+0002    0.0000000E+0000    0.0000000E+0000    0.0000000E+0000    0.1239849E+0002    0.0000000E+0000    0.0000000E+0000    0.0000000E+0000    0.1239849E+0002
 0.1252891E+0002    0.0000000E+0000    0.0000000E+0000    0.0000000E+0000    0.1252891E+0002    0.0000000E+0000    0.0000000E+0000    0.0000000E+0000    0.1252891E+0002
 0.1217987E+0002    0.0000000E+0000    0.0000000E+0000    0.0000000E+0000    0.1217987E+0002    0.0000000E+0000    0.0000000E+0000    0.0000000E+0000    0.1217987E+0002
 0.1224260E+0002    0.0000000E+0000    0.0000000E+0000    0.0000000E+0000    0.1224260E+0002    0.0000000E+0000    0.0000000E+0000    0.0000000E+0000    0.1224260E+0002
 0.1218504E+0002    0.0000000E+0000    0.0000000E+0000    0.0000000E+0000    0.1218504E+0002    0.0000000E+0000    0.0000000E+0000    0.0000000E+0000    0.1218504E+0002
 0.1217472E+0002    0.0000000E+0000    0.0000000E+0000    0.0000000E+0000    0.1217472E+0002    0.0000000E+0000    0.0000000E+0000    0.0000000E+0000    0.1217472E+0002
 0.1211874E+0002    0.0000000E+0000    0.0000000E+0000    0.0000000E+0000    0.1211874E+0002    0.0000000E+0000    0.0000000E+0000    0.0000000E+0000    0.1211874E+0002
 0.1222383E+0002    0.0000000E+0000    0.0000000E+0000    0.0000000E+0000    0.1222383E+0002    0.0000000E+0000    0.0000000E+0000    0.0000000E+0000    0.1222383E+0002
 0.1249698E+0002    0.0000000E+0000    0.0000000E+0000    0.0000000E+0000    0.1249698E+0002    0.0000000E+0000    0.0000000E+0000    0.0000000E+0000    0.1249698E+0002
 0.1225364E+0002    0.0000000E+0000    0.0000000E+0000    0.0000000E+0000    0.1225364E+0002    0.0000000E+0000    0.0000000E+0000    0.0000000E+0000    0.1225364E+0002
 0.1212241E+0002    0.0000000E+0000    0.0000000E+0000    0.0000000E+0000    0.1212241E+0002    0.0000000E+0000    0.0000000E+0000    0.0000000E+0000    0.1212241E+0002
 0.1252491E+0002    0.0000000E+0000    0.0000000E+0000    0.0000000E+0000    0.1252491E+0002    0.0000000E+0000    0.0000000E+0000    0.0000000E+0000    0.1252491E+0002
 0.1218545E+0002    0.0000000E+0000    0.0000000E+0000    0.0000000E+0000    0.1218545E+0002    0.0000000E+0000    0.0000000E+0000    0.0000000E+0000    0.1218545E+0002
 0.1218930E+0002    0.0000000E+0000    0.0000000E+0000    0.0000000E+0000    0.1218930E+0002    0.0000000E+0000    0.0000000E+0000    0.0000000E+0000    0.1218930E+0002
 0.1237586E+0002    0.0000000E+0000    0.0000000E+0000    0.0000000E+0000    0.1237586E+0002    0.0000000E+0000    0.0000000E+0000    0.0000000E+0000    0.1237586E+0002
 0.1248024E+0002    0.0000000E+0000    0.0000000E+0000    0.0000000E+0000    0.1248024E+0002    0.0000000E+0000    0.0000000E+0000    0.0000000E+0000    0.1248024E+0002
 0.1237439E+0002    0.0000000E+0000    0.0000000E+0000    0.0000000E+0000    0.1237439E+0002    0.0000000E+0000    0.0000000E+0000    0.0000000E+0000    0.1237439E+0002
 0.1231088E+0002    0.0000000E+0000    0.0000000E+0000    0.0000000E+0000    0.1231088E+0002    0.0000000E+0000    0.0000000E+0000    0.0000000E+0000    0.1231088E+0002
 0.1220973E+0002    0.0000000E+0000    0.0000000E+0000    0.0000000E+0000    0.1220973E+0002    0.0000000E+0000    0.0000000E+0000    0.0000000E+0000    0.1220973E+0002
 0.1223782E+0002    0.0000000E+0000    0.0000000E+0000    0.0000000E+0000    0.1223782E+0002    0.0000000E+0000    0.0000000E+0000    0.0000000E+0000    0.1223782E+0002
 0.1224023E+0002    0.0000000E+0000    0.0000000E+0000    0.0000000E+0000    0.1224023E+0002    0.0000000E+0000    0.0000000E+0000    0.0000000E+0000    0.1224023E+0002
 0.1232245E+0002    0.0000000E+0000    0.0000000E+0000    0.0000000E+0000    0.1232245E+0002    0.0000000E+0000    0.0000000E+0000    0.0000000E+0000    0.1232245E+0002
 0.1224629E+0002    0.0000000E+0000    0.0000000E+0000    0.0000000E+0000    0.1224629E+0002    0.0000000E+0000    0.0000000E+0000    0.0000000E+0000    0.1224629E+0002
 0.1210799E+0002    0.0000000E+0000    0.0000000E+0000    0.0000000E+0000    0.1210799E+0002    0.0000000E+0000    0.0000000E+0000    0.0000000E+0000    0.1210799E+0002
 0.1224293E+0002    0.0000000E+0000    0.0000000E+0000    0.0000000E+0000    0.1224293E+0002    0.0000000E+0000    0.0000000E+0000    0.0000000E+0000    0.1224293E+0002
 0.1239899E+0002    0.0000000E+0000    0.0000000E+0000    0.0000000E+0000    0.1239899E+0002    0.0000000E+0000    0.0000000E+0000    0.0000000E+0000    0.1239899E+0002
 0.1221678E+0002    0.0000000E+0000    0.0000000E+0000    0.0000000E+0000    0.1221678E+0002    0.0000000E+0000    0.0000000E+0000    0.0000000E+0000    0.1221678E+0002
 0.1217478E+0002    0.0000000E+0000    0.0000000E+0000    0.0000000E+0000    0.1217478E+0002    0.0000000E+0000    0.0000000E+0000    0.0000000E+0000    0.1217478E+0002
 0.1219000E+0002    0.0000000E+0000    0.0000000E+0000    0.0000000E+0000    0.1219000E+0002    0.0000000E+0000    0.0000000E+0000    0.0000000E+0000    0.1219000E+0002
 0.1215879E+0002    0.0000000E+0000    0.0000000E+0000    0.0000000E+0000    0.1215879E+0002    0.0000000E+0000    0.0000000E+0000    0.0000000E+0000    0.1215879E+0002
 0.1235040E+0002    0.0000000E+0000    0.0000000E+0000    0.0000000E+0000    0.1235040E+0002    0.0000000E+0000    0.0000000E+0000    0.0000000E+0000    0.1235040E+0002
 0.1224211E+0002    0.0000000E+0000    0.0000000E+0000    0.0000000E+0000    0.1224211E+0002    0.0000000E+0000    0.0000000E+0000    0.0000000E+0000    0.1224211E+0002
 0.1252562E+0002    0.0000000E+0000    0.0000000E+0000    0.0000000E+0000    0.1252562E+0002    0.0000000E+0000    0.0000000E+0000    0.0000000E+0000    0.1252562E+0002
 0.1230693E+0002    0.0000000E+0000    0.0000000E+0000    0.0000000E+0000    0.1230693E+0002    0.0000000E+0000    0.0000000E+0000    0.0000000E+0000    0.1230693E+0002
 0.1239225E+0002    0.0000000E+0000    0.0000000E+0000    0.0000000E+0000    0.1239225E+0002    0.0000000E+0000    0.0000000E+0000    0.0000000E+0000    0.1239225E+0002
 0.1218410E+0002    0.0000000E+0000    0.0000000E+0000    0.0000000E+0000    0.1218410E+0002    0.0000000E+0000    0.0000000E+0000    0.0000000E+0000    0.1218410E+0002
 0.1224133E+0002    0.0000000E+0000    0.0000000E+0000    0.0000000E+0000    0.1224133E+0002    0.0000000E+0000    0.0000000E+0000    0.0000000E+0000    0.1224133E+0002
 0.1232957E+0002    0.0000000E+0000    0.0000000E+0000    0.0000000E+0000    0.1232957E+0002    0.0000000E+0000    0.0000000E+0000    0.0000000E+0000    0.1232957E+0002
 0.1211820E+0002    0.0000000E+0000    0.0000000E+0000    0.0000000E+0000    0.1211820E+0002    0.0000000E+0000    0.0000000E+0000    0.0000000E+0000    0.1211820E+0002
 0.1238783E+0002    0.0000000E+0000    0.0000000E+0000    0.0000000E+0000    0.1238783E+0002    0.0000000E+0000    0.0000000E+0000    0.0000000E+0000    0.1238783E+0002
 0.1228437E+0002    0.0000000E+0000    0.0000000E+0000    0.0000000E+0000    0.1228437E+0002    0.0000000E+0000    0.0000000E+0000    0.0000000E+0000    0.1228437E+0002
 0.1238843E+0002    0.0000000E+0000    0.0000000E+0000    0.0000000E+0000    0.1238843E+0002    0.0000000E+0000    0.0000000E+0000    0.0000000E+0000    0.1238843E+0002
 0.1246759E+0002    0.0000000E+0000    0.0000000E+0000    0.0000000E+0000    0.1246759E+0002    0.0000000E+0000    0.0000000E+0000    0.0000000E+0000    0.1246759E+0002
 0.1219377E+0002    0.0000000E+0000    0.0000000E+0000    0.0000000E+0000    0.1219377E+0002    0.0000000E+0000    0.0000000E+0000    0.0000000E+0000    0.1219377E+0002
 0.1240787E+0002    0.0000000E+0000    0.0000000E+0000    0.0000000E+0000    0.1240787E+0002    0.0000000E+0000    0.0000000E+0000    0.0000000E+0000    0.1240787E+0002
 0.1208582E+0002    0.0000000E+0000    0.0000000E+0000    0.0000000E+0000    0.1208582E+0002    0.0000000E+0000    0.0000000E+0000    0.0000000E+0000    0.1208582E+0002
 0.1240122E+0002    0.0000000E+0000    0.0000000E+0000    0.0000000E+0000    0.1240122E+0002    0.0000000E+0000    0.0000000E+0000    0.0000000E+0000    0.1240122E+0002
 0.1234308E+0002    0.0000000E+0000    0.0000000E+0000    0.0000000E+0000    0.1234308E+0002    0.0000000E+0000    0.0000000E+0000    0.0000000E+0000    0.1234308E+0002
 0.1247055E+0002    0.0000000E+0000    0.0000000E+0000    0.0000000E+0000    0.1247055E+0002    0.0000000E+0000    0.0000000E+0000    0.0000000E+0000    0.1247055E+0002
 0.1236002E+0002    0.0000000E+0000    0.0000000E+0000    0.0000000E+0000    0.1236002E+0002    0.0000000E+0000    0.0000000E+0000    0.0000000E+0000    0.1236002E+0002
 0.1247914E+0002    0.0000000E+0000    0.0000000E+0000    0.0000000E+0000    0.1247914E+0002    0.0000000E+0000    0.0000000E+0000    0.0000000E+0000    0.1247914E+0002
 0.1212039E+0002    0.0000000E+0000    0.0000000E+0000    0.0000000E+0000    0.1212039E+0002    0.0000000E+0000    0.0000000E+0000    0.0000000E+0000    0.1212039E+0002
 0.1229244E+0002    0.0000000E+0000    0.0000000E+0000    0.0000000E+0000    0.1229244E+0002    0.0000000E+0000    0.0000000E+0000    0.0000000E+0000    0.1229244E+0002
 0.1235976E+0002    0.0000000E+0000    0.0000000E+0000    0.0000000E+0000    0.1235976E+0002    0.0000000E+0000    0.0000000E+0000    0.0000000E+0000    0.1235976E+0002
 0.1233041E+0002    0.0000000E+0000    0.0000000E+0000    0.0000000E+0000    0.1233041E+0002    0.0000000E+0000    0.0000000E+0000    0.0000000E+0000    0.1233041E+0002
 0.1224011E+0002    0.0000000E+0000    0.0000000E+0000    0.0000000E+0000    0.1224011E+0002    0.0000000E+0000    0.0000000E+0000    0.0000000E+0000    0.1224011E+0002
 0.1239147E+0002    0.0000000E+0000    0.0000000E+0000    0.0000000E+0000    0.1239147E+0002    0.0000000E+0000    0.0000000E+0000    0.0000000E+0000    0.1239147E+0002
 0.1245296E+0002    0.0000000E+0000    0.0000000E+0000    0.0000000E+0000    0.1245296E+0002    0.0000000E+0000    0.0000000E+0000    0.0000000E+0000    0.1245296E+0002
 0.1238854E+0002    0.0000000E+0000    0.0000000E+0000    0.0000000E+0000    0.1238854E+0002    0.0000000E+0000    0.0000000E+0000    0.0000000E+0000    0.1238854E+0002
 0.1218733E+0002    0.0000000E+0000    0.0000000E+0000    0.0000000E+0000    0.1218733E+0002    0.0000000E+0000    0.0000000E+0000    0.0000000E+0000    0.1218733E+0002
 0.1230433E+0002    0.0000000E+0000    0.0000000E+0000    0.0000000E+0000    0.1230433E+0002    0.0000000E+0000    0.0000000E+0000    0.0000000E+0000    0.1230433E+0002
 0.1219269E+0002    0.0000000E+0000    0.0000000E+0000    0.0000000E+0000    0.1219269E+0002    0.0000000E+0000    0.0000000E+0000    0.0000000E+0000    0.1219269E+0002
 0.1227364E+0002    0.0000000E+0000    0.0000000E+0000    0.0000000E+0000    0.1227364E+0002    0.0000000E+0000    0.0000000E+0000    0.0000000E+0000    0.1227364E+0002
 0.1224476E+0002    0.0000000E+0000    0.0000000E+0000    0.0000000E+0000    0.1224476E+0002    0.0000000E+0000    0.0000000E+0000    0.0000000E+0000    0.1224476E+0002
 0.1220891E+0002    0.0000000E+0000    0.0000000E+0000    0.0000000E+0000    0.1220891E+0002    0.0000000E+0000    0.0000000E+0000    0.0000000E+0000    0.1220891E+0002
 0.1225086E+0002    0.0000000E+0000    0.0000000E+0000    0.0000000E+0000    0.1225086E+0002    0.0000000E+0000    0.0000000E+0000    0.0000000E+0000    0.1225086E+0002
 0.1235732E+0002    0.0000000E+0000    0.0000000E+0000    0.0000000E+0000    0.1235732E+0002    0.0000000E+0000    0.0000000E+0000    0.0000000E+0000    0.1235732E+0002
 0.1238823E+0002    0.0000000E+0000    0.0000000E+0000    0.0000000E+0000    0.1238823E+0002    0.0000000E+0000    0.0000000E+0000    0.0000000E+0000    0.1238823E+0002
 0.1219775E+0002    0.0000000E+0000    0.0000000E+0000    0.0000000E+0000    0.1219775E+0002    0.0000000E+0000    0.0000000E+0000    0.0000000E+0000    0.1219775E+0002