 0.1366404E+0002    0.0000000E+0000    0.0000000E+0000    0.0000000E+0000    0.1561643E+0002    0.0000000E+0000    0.0000000E+0000    0.0000000E+0000    0.1480857E+0002
 0.1349483E+0002    0.0000000E+0000    0.0000000E+0000    0.0000000E+0000    0.1569205E+0002    0.0000000E+0000    0.0000000E+0000    0.0000000E+0000    0.1475049E+0002
 0.1349651E+0002    0.0000000E+0000    0.0000000E+0000    0.0000000E+0000    0.1569400E+0002    0.0000000E+0000    0.0000000E+0000    0.0000000E+0000    0.1475232E+0002
 0.1369350E+0002    0.0000000E+0000    0.0000000E+0000    0.0000000E+0000    0.1572182E+0002    0.0000000E+0000    0.0000000E+0000    0.0000000E+0000    0.1468131E+0002
 0.1357345E+0002    0.0000000E+0000    0.0000000E+0000    0.0000000E+0000    0.1552972E+0002    0.0000000E+0000    0.0000000E+0000    0.0000000E+0000    0.1469160E+0002
 0.1369491E+0002    0.0000000E+0000    0.0000000E+0000    0.0000000E+0000    0.1563454E+0002    0.0000000E+0000    0.0000000E+0000    0.0000000E+0000    0.1466006E+0002
 0.1359188E+0002    0.0000000E+0000    0.0000000E+0000    0.0000000E+0000    0.1572879E+0002    0.0000000E+0000    0.0000000E+0000    0.0000000E+0000    0.1467283E+0002
 0.1347171E+0002    0.0000000E+0000    0.0000000E+0000    0.0000000E+0000    0.1562069E+0002    0.0000000E+0000    0.0000000E+0000    0.0000000E+0000    0.1467229E+0002
 0.1368383E+0002    0.0000000E+0000    0.0000000E+0000    0.0000000E+0000    0.1563512E+0002    0.0000000E+0000    0.0000000E+0000    0.0000000E+0000    0.1464448E+0002
 0.1369192E+0002    0.0000000E+0000    0.0000000E+0000    0.0000000E+0000    0.1566835E+0002    0.0000000E+0000    0.0000000E+0000    0.0000000E+0000    0.1463628E+0002
 0.1345320E+0002    0.0000000E+0000    0.0000000E+0000    0.0000000E+0000    0.1549852E+0002    0.0000000E+0000    0.0000000E+0000    0.0000000E+0000    0.1458670E+0002
 0.1348131E+0002    0.0000000E+0000    0.0000000E+0000    0.0000000E+0000    0.1551294E+0002    0.0000000E+0000    0.0000000E+0000    0.0000000E+0000    0.1483903E+0002
 0.1344195E+0002    0.0000000E+0000    0.0000000E+0000    0.0000000E+0000    0.1556842E+0002    0.0000000E+0000    0.0000000E+0000    0.0000000E+0000    0.1464063E+0002
 0.1353733E+0002    0.0000000E+0000    0.0000000E+0000    0.0000000E+0000    0.1551689E+0002    0.0000000E+0000    0.0000000E+0000    0.0000000E+0000    0.1486018E+0002
 0.1363741E+0002    0.0000000E+0000    0.0000000E+0000    0.0000000E+0000    0.1551107E+0002    0.0000000E+0000    0.0000000E+0000    0.0000000E+0000    0.1463583E+0002
 0.1345080E+0002    0.0000000E+0000    0.0000000E+0000    0.0000000E+0000    0.1576987E+0002    0.0000000E+0000    0.0000000E+0000    0.0000000E+0000    0.1458652E+0002
 0.1359990E+0002    0.0000000E+0000    0.0000000E+0000    0.0000000E+0000    0.1573359E+0002    0.0000000E+0000    0.0000000E+0000    0.0000000E+0000    0.1462167E+0002
 0.1345966E+0002    0.0000000E+0000    0.0000000E+0000    0.0000000E+0000    0.1565050E+0002    0.0000000E+0000    0.0000000E+0000    0.0000000E+0000    0.1472245E+0002
 0.1346556E+0002    0.0000000E+0000    0.0000000E+0000    0.0000000E+0000    0.1551276E+0002    0.0000000E+0000    0.0000000E+0000    0.0000000E+0000    0.1460010E+0002
 0.1361194E+0002    0.0000000E+0000    0.0000000E+0000    0.0000000E+0000    0.1551166E+0002    0.0000000E+0000    0.0000000E+0000    0.0000000E+0000    0.1456455E+0002
 0.1314867E+0002    0.0000000E+0000    0.0000000E+0000    0.0000000E+0000    0.1536659E+0002    0.0000000E+0000    0.0000000E+0000    0.0000000E+0000    0.1437731E+0002
 0.1282574E+0002    0.0000000E+0000    0.0000000E+0000    0.0000000E+0000    0.1488906E+0002    0.0000000E+0000    0.0000000E+0000    0.0000000E+0000    0.1396573E+0002
 0.1281792E+0002    0.0000000E+0000    0.0000000E+0000    0.0000000E+0000    0.1466651E+0002    0.0000000E+0000    0.0000000E+0000    0.0000000E+0000    0.1378879E+0002
 0.1330551E+0002    0.0000000E+0000    0.0000000E+0000    0.0000000E+0000    0.1537939E+0002    0.0000000E+0000    0.0000000E+0000    0.0000000E+0000    0.1446027E+0002
 0.1345113E+0002    0.0000000E+0000    0.0000000E+0000    0.0000000E+0000    0.1560845E+0002    0.0000000E+0000    0.0000000E+0000    0.0000000E+0000    0.1469983E+0002
 0.1300936E+0002    0.0000000E+0000    0.0000000E+0000    0.0000000E+0000    0.1509582E+0002    0.0000000E+0000    0.0000000E+0000    0.0000000E+0000    0.1421704E+0002
 0.1336529E+0002    0.0000000E+0000    0.0000000E+0000    0.0000000E+0000    0.1558735E+0002    0.0000000E+0000    0.0000000E+0000    0.0000000E+0000    0.1464818E+0002
 0.1361762E+0002    0.0000000E+0000    0.0000000E+0000    0.0000000E+0000    0.1556337E+0002    0.0000000E+0000    0.0000000E+0000    0.0000000E+0000    0.1475826E+0002
 0.1316911E+0002    0.0000000E+0000    0.0000000E+0000    0.0000000E+0000    0.1525257E+0002    0.0000000E+0000    0.0000000E+0000    0.0000000E+0000    0.1429989E+0002
 0.1345881E+0002    0.0000000E+0000    0.0000000E+0000    0.0000000E+0000    0.1565015E+0002    0.0000000E+0000    0.0000000E+0000    0.0000000E+0000    0.1471111E+0002
 0.1291277E+0002    0.0000000E+0000    0.0000000E+0000    0.0000000E+0000    0.1501521E+0002    0.0000000E+0000    0.0000000E+0000    0.0000000E+0000    0.1411426E+0002
 0.1353545E+0002    0.0000000E+0000    0.0000000E+0000    0.0000000E+0000    0.1559383E+0002    0.0000000E+0000    0.0000000E+0000    0.0000000E+0000    0.1475859E+0002
 0.1344326E+0002    0.0000000E+0000    0.0000000E+0000    0.0000000E+0000    0.1548707E+0002    0.0000000E+0000    0.0000000E+0000    0.0000000E+0000    0.1457593E+0002
 0.1366987E+0002    0.0000000E+0000    0.0000000E+0000    0.0000000E+0000    0.1564876E+0002    0.0000000E+0000    0.0000000E+0000    0.0000000E+0000    0.1475092E+0002
 0.1350502E+0002    0.0000000E+0000    0.0000000E+0000    0.0000000E+0000    0.1557633E+0002    0.0000000E+0000    0.0000000E+0000    0.0000000E+0000    0.1458254E+0002
 0.1352196E+0002    0.0000000E+0000    0.0000000E+0000    0.0000000E+0000    0.1559587E+0002    0.0000000E+0000    0.0000000E+0000    0.0000000E+0000    0.1460083E+0002
 0.1367700E+0002    0.0000000E+0000    0.0000000E+0000    0.0000000E+0000    0.1565693E+0002    0.0000000E+0000    0.0000000E+0000    0.0000000E+0000    0.1475862E+0002
 0.1341081E+0002    0.0000000E+0000    0.0000000E+0000    0.0000000E+0000    0.1571708E+0002    0.0000000E+0000    0.0000000E+0000    0.0000000E+0000    0.1474877E+0002
 0.1340956E+0002    0.0000000E+0000    0.0000000E+0000    0.0000000E+0000    0.1553091E+0002    0.0000000E+0000    0.0000000E+0000    0.0000000E+0000    0.1460536E+0002
 0.1364160E+0002    0.0000000E+0000    0.0000000E+0000    0.0000000E+0000    0.1564763E+0002    0.0000000E+0000    0.0000000E+0000    0.0000000E+0000    0.1459258E+0002
 0.1328828E+0002    0.0000000E+0000    0.0000000E+0000    0.0000000E+0000    0.1524237E+0002    0.0000000E+0000    0.0000000E+0000    0.0000000E+0000    0.1421464E+0002
 0.1347409E+0002    0.0000000E+0000    0.0000000E+0000    0.0000000E+0000    0.1569888E+0002    0.0000000E+0000    0.0000000E+0000    0.0000000E+0000    0.1454563E+0002
 0.1355372E+0002    0.0000000E+0000    0.0000000E+0000    0.0000000E+0000    0.1575208E+0002    0.0000000E+0000    0.0000000E+0000    0.0000000E+0000    0.1475229E+0002
 0.1354006E+0002    0.0000000E+0000    0.0000000E+0000    0.0000000E+0000    0.1572009E+0002    0.0000000E+0000    0.0000000E+0000    0.0000000E+0000    0.1463430E+0002
 0.1330136E+0002    0.0000000E+0000    0.0000000E+0000    0.0000000E+0000    0.1546350E+0002    0.0000000E+0000    0.0000000E+0000    0.0000000E+0000    0.1453479E+0002
 0.1359334E+0002    0.0000000E+0000    0.0000000E+0000    0.0000000E+0000    0.1578016E+0002    0.0000000E+0000    0.0000000E+0000    0.0000000E+0000    0.1480156E+0002
 0.1332238E+0002    0.0000000E+0000    0.0000000E+0000    0.0000000E+0000    0.1540065E+0002    0.0000000E+0000    0.0000000E+0000    0.0000000E+0000    0.1465470E+0002
 0.1357978E+0002    0.0000000E+0000    0.0000000E+0000    0.0000000E+0000    0.1578861E+0002    0.0000000E+0000    0.0000000E+0000    0.0000000E+0000    0.1466936E+0002
 0.1350828E+0002    0.0000000E+0000    0.0000000E+0000    0.0000000E+0000    0.1573042E+0002    0.0000000E+0000    0.0000000E+0000    0.0000000E+0000    0.1470612E+0002
 0.1357105E+0002    0.0000000E+0000    0.0000000E+0000    0.0000000E+0000    0.1552697E+0002    0.0000000E+0000    0.0000000E+0000    0.0000000E+0000    0.1468900E+0002
 0.1346572E+0002    0.0000000E+0000    0.0000000E+0000    0.0000000E+0000    0.1565818E+0002    0.0000000E+0000    0.0000000E+0000    0.0000000E+0000    0.1471867E+0002
 0.1348572E+0002    0.0000000E+0000    0.0000000E+0000    0.0000000E+0000    0.1568145E+0002    0.0000000E+0000    0.0000000E+0000    0.0000000E+0000    0.1474052E+0002
 0.1324357E+0002    0.0000000E+0000    0.0000000E+0000    0.0000000E+0000    0.1542402E+0002    0.0000000E+0000    0.0000000E+0000    0.0000000E+0000    0.1437109E+0002
 0.1345217E+0002    0.0000000E+0000    0.0000000E+0000    0.0000000E+0000    0.1566696E+0002    0.0000000E+0000    0.0000000E+0000    0.0000000E+0000    0.1459745E+0002
 0.1355373E+0002    0.0000000E+0000    0.0000000E+0000    0.0000000E+0000    0.1550715E+0002    0.0000000E+0000    0.0000000E+0000    0.0000000E+0000    0.1467025E+0002
 0.1343787E+0002    0.0000000E+0000    0.0000000E+0000    0.0000000E+0000    0.1575246E+0002    0.0000000E+0000    0.0000000E+0000    0.0000000E+0000    0.1466151E+0002
 0.1346417E+0002    0.0000000E+0000    0.0000000E+0000    0.0000000E+0000    0.1551115E+0002    0.0000000E+0000    0.0000000E+0000    0.0000000E+0000    0.1459859E+0002
 0.1351145E+0002    0.0000000E+0000    0.0000000E+0000    0.0000000E+0000    0.1570372E+0002    0.0000000E+0000    0.0000000E+0000    0.0000000E+0000    0.1484284E+0002
 0.1306321E+0002    0.0000000E+0000    0.0000000E+0000    0.0000000E+0000    0.1531327E+0002    0.0000000E+0000    0.0000000E+0000    0.0000000E+0000    0.1425273E+0002
 0.1346102E+0002    0.0000000E+0000    0.0000000E+0000    0.0000000E+0000    0.1531599E+0002    0.0000000E+0000    0.0000000E+0000    0.0000000E+0000    0.1460992E+0002
 0.1342654E+0002    0.0000000E+0000    0.0000000E+0000    0.0000000E+0000    0.1565537E+0002    0.0000000E+0000    0.0000000E+0000    0.0000000E+0000    0.1467154E+0002
 0.1354032E+0002    0.0000000E+0000    0.0000000E+0000    0.0000000E+0000    0.1555200E+0002    0.0000000E+0000    0.0000000E+0000    0.0000000E+0000    0.1450076E+0002
 0.1347105E+0002    0.0000000E+0000    0.0000000E+0000    0.0000000E+0000    0.1578768E+0002    0.0000000E+0000    0.0000000E+0000    0.0000000E+0000    0.1481503E+0002
 0.1344309E+0002    0.0000000E+0000    0.0000000E+0000    0.0000000E+0000    0.1556974E+0002    0.0000000E+0000    0.0000000E+0000    0.0000000E+0000    0.1464186E+0002
 0.1315621E+0002    0.0000000E+0000    0.0000000E+0000    0.0000000E+0000    0.1518937E+0002    0.0000000E+0000    0.0000000E+0000    0.0000000E+0000    0.1434146E+0002
 0.1350813E+0002    0.0000000E+0000    0.0000000E+0000    0.0000000E+0000    0.1573854E+0002    0.0000000E+0000    0.0000000E+0000    0.0000000E+0000    0.1458238E+0002
 0.1333877E+0002    0.0000000E+0000    0.0000000E+0000    0.0000000E+0000    0.1546361E+0002    0.0000000E+0000    0.0000000E+0000    0.0000000E+0000    0.1453646E+0002
 0.1367946E+0002    0.0000000E+0000    0.0000000E+0000    0.0000000E+0000    0.1565288E+0002    0.0000000E+0000    0.0000000E+0000    0.0000000E+0000    0.1482762E+0002
 0.1331371E+0002    0.0000000E+0000    0.0000000E+0000    0.0000000E+0000    0.1542848E+0002    0.0000000E+0000    0.0000000E+0000    0.0000000E+0000    0.1450430E+0002
 0.1368030E+0002    0.0000000E+0000    0.0000000E+0000    0.0000000E+0000    0.1554611E+0002    0.0000000E+0000    0.0000000E+0000    0.0000000E+0000    0.1469759E+0002
 0.1368495E+0002    0.0000000E+0000    0.0000000E+0000    0.0000000E+0000    0.1554945E+0002    0.0000000E+0000    0.0000000E+0000    0.0000000E+0000    0.1463805E+0002
 0.1345507E+0002    0.0000000E+0000    0.0000000E+0000    0.0000000E+0000    0.1556604E+0002    0.0000000E+0000    0.0000000E+0000    0.0000000E+0000    0.1446596E+0002
 0.1336637E+0002    0.0000000E+0000    0.0000000E+0000    0.0000000E+0000    0.1542292E+0002    0.0000000E+0000    0.0000000E+0000    0.0000000E+0000    0.1437334E+0002
 0.1364201E+0002    0.0000000E+0000    0.0000000E+0000    0.0000000E+0000    0.1551529E+0002    0.0000000E+0000    0.0000000E+0000    0.0000000E+0000    0.1458098E+0002
 0.1361006E+0002    0.0000000E+0000    0.0000000E+0000    0.0000000E+0000    0.1563754E+0002    0.0000000E+0000    0.0000000E+0000    0.0000000E+0000    0.1472989E+0002
 0.1329626E+0002    0.0000000E+0000    0.0000000E+0000    0.0000000E+0000    0.1543704E+0002    0.0000000E+0000    0.0000000E+0000    0.0000000E+0000    0.1437080E+0002
 0.1347874E+0002    0.0000000E+0000    0.0000000E+0000    0.0000000E+0000    0.1561775E+0002    0.0000000E+0000    0.0000000E+0000    0.0000000E+0000    0.1460391E+0002
 0.1307110E+0002    0.0000000E+0000    0.0000000E+0000    0.0000000E+0000    0.1528146E+0002    0.0000000E+0000    0.0000000E+0000    0.0000000E+0000    0.1418315E+0002
 0.1340776E+0002    0.0000000E+0000    0.0000000E+0000    0.0000000E+0000    0.1547151E+0002    0.0000000E+0000    0.0000000E+0000    0.0000000E+0000    0.1463321E+0002
 0.1351102E+0002    0.0000000E+0000    0.0000000E+0000    0.0000000E+0000    0.1554390E+0002    0.0000000E+0000    0.0000000E+0000    0.0000000E+0000    0.1458359E+0002
 0.1339488E+0002    0.0000000E+0000    0.0000000E+0000    0.0000000E+0000    0.1542301E+0002    0.0000000E+0000    0.0000000E+0000    0.0000000E+0000    0.1446980E+0002
 0.1358211E+0002    0.0000000E+0000    0.0000000E+0000    0.0000000E+0000    0.1556537E+0002    0.0000000E+0000    0.0000000E+0000    0.0000000E+0000    0.1479418E+0002
 0.1330640E+0002    0.0000000E+0000    0.0000000E+0000    0.0000000E+0000    0.1509911E+0002    0.0000000E+0000    0.0000000E+0000    0.0000000E+0000    0.1437781E+0002
 0.1365238E+0002    0.0000000E+0000    0.0000000E+0000    0.0000000E+0000    0.1571938E+0002    0.0000000E+0000    0.0000000E+0000    0.0000000E+0000    0.1462767E+0002
 0.1357411E+0002    0.0000000E+0000    0.0000000E+0000    0.0000000E+0000    0.1575115E+0002    0.0000000E+0000    0.0000000E+0000    0.0000000E+0000    0.1483422E+0002
 0.1356692E+0002    0.0000000E+0000    0.0000000E+0000    0.0000000E+0000    0.1552224E+0002    0.0000000E+0000    0.0000000E+0000    0.0000000E+0000    0.1468452E+0002
 0.1367192E+0002    0.0000000E+0000    0.0000000E+0000    0.0000000E+0000    0.1569705E+0002    0.0000000E+0000    0.0000000E+0000    0.0000000E+0000    0.1465818E+0002
 0.1343189E+0002    0.0000000E+0000    0.0000000E+0000    0.0000000E+0000    0.1566502E+0002    0.0000000E+0000    0.0000000E+0000    0.0000000E+0000    0.1472117E+0002
 0.1345561E+0002    0.0000000E+0000    0.0000000E+0000    0.0000000E+0000    0.1567096E+0002    0.0000000E+0000    0.0000000E+0000    0.0000000E+0000    0.1460118E+0002
 0.1367596E+0002    0.0000000E+0000    0.0000000E+0000    0.0000000E+0000    0.1561290E+0002    0.0000000E+0000    0.0000000E+0000    0.0000000E+0000    0.1463977E+0002
 0.1350666E+0002    0.0000000E+0000    0.0000000E+0000    0.0000000E+0000    0.1545330E+0002    0.0000000E+0000    0.0000000E+0000    0.0000000E+0000    0.1461930E+0002
 0.1336472E+0002    0.0000000E+0000    0.0000000E+0000    0.0000000E+0000    0.1554074E+0002    0.0000000E+0000    0.0000000E+0000    0.0000000E+0000    0.1460827E+0002
 0.1358871E+0002    0.0000000E+0000    0.0000000E+0000    0.0000000E+0000    0.1576809E+0002    0.0000000E+0000    0.0000000E+0000    0.0000000E+0000    0.1485017E+0002
 0.1354502E+0002    0.0000000E+0000    0.0000000E+0000    0.0000000E+0000    0.1549718E+0002    0.0000000E+0000    0.0000000E+0000    0.0000000E+0000    0.1466082E+0002
 0.1343123E+0002    0.0000000E+0000    0.0000000E+0000    0.0000000E+0000    0.1564258E+0002    0.0000000E+0000    0.0000000E+0000    0.0000000E+0000    0.1457473E+0002
 0.1356488E+0002    0.0000000E+0000    0.0000000E+0000    0.0000000E+0000    0.1551991E+0002    0.0000000E+0000    0.0000000E+0000    0.0000000E+0000    0.1468232E+0002
 0.1332024E+0002    0.0000000E+0000    0.0000000E+0000    0.0000000E+0000    0.1551331E+0002    0.0000000E+0000    0.0000000E+0000    0.0000000E+0000    0.1445428E+0002
 0.1342480E+0002    0.0000000E+0000    0.0000000E+0000    0.0000000E+0000    0.1565675E+0002    0.0000000E+0000    0.0000000E+0000    0.0000000E+0000    0.1471340E+0002
 0.1345755E+0002    0.0000000E+0000    0.0000000E+0000    0.0000000E+0000    0.1558664E+0002    0.0000000E+0000    0.0000000E+0000    0.0000000E+0000    0.1461310E+0002
 0.1351944E+0002    0.0000000E+0000    0.0000000E+0000    0.0000000E+0000    0.1574341E+0002    0.0000000E+0000    0.0000000E+0000    0.0000000E+0000    0.1471827E+0002
 0.1346165E+0002    0.0000000E+0000    0.0000000E+0000    0.0000000E+0000    0.1567800E+0002    0.0000000E+0000    0.0000000E+0000    0.0000000E+0000    0.1460773E+0002
 0.1343045E+0002    0.0000000E+0000    0.0000000E+0000    0.0000000E+0000    0.1566334E+0002    0.0000000E+0000    0.0000000E+0000    0.0000000E+0000    0.1471960E+0002
 0.1356454E+0002    0.0000000E+0000    0.0000000E+0000    0.0000000E+0000    0.1551952E+0002    0.0000000E+0000    0.0000000E+0000    0.0000000E+0000    0.1468195E+0002
 0.1343123E+0002    0.0000000E+0000    0.0000000E+0000    0.0000000E+0000    0.1566425E+0002    0.0000000E+0000    0.0000000E+0000    0.0000000E+0000    0.1472046E+0002
 0.1365223E+0002    0.0000000E+0000    0.0000000E+0000    0.0000000E+0000    0.1560293E+0002    0.0000000E+0000    0.0000000E+0000    0.0000000E+0000    0.1479577E+0002
 0.1329588E+0002    0.0000000E+0000    0.0000000E+0000    0.0000000E+0000    0.1539939E+0002    0.0000000E+0000    0.0000000E+0000    0.0000000E+0000    0.1443754E+0002
 0.1348831E+0002    0.0000000E+0000    0.0000000E+0000    0.0000000E+0000    0.1568446E+0002    0.0000000E+0000    0.0000000E+0000    0.0000000E+0000    0.1474336E+0002
 0.1341990E+0002    0.0000000E+0000    0.0000000E+0000    0.0000000E+0000    0.1546070E+0002    0.0000000E+0000    0.0000000E+0000    0.0000000E+0000    0.1463260E+0002
 0.1333478E+0002    0.0000000E+0000    0.0000000E+0000    0.0000000E+0000    0.1517235E+0002    0.0000000E+0000    0.0000000E+0000    0.0000000E+0000    0.1447290E+0002
 0.1345056E+0002    0.0000000E+0000    0.0000000E+0000    0.0000000E+0000    0.1577878E+0002    0.0000000E+0000    0.0000000E+0000    0.0000000E+0000    0.1469103E+0002
 0.1347407E+0002    0.0000000E+0000    0.0000000E+0000    0.0000000E+0000    0.1562343E+0002    0.0000000E+0000    0.0000000E+0000    0.0000000E+0000    0.1467485E+0002
 0.1333675E+0002    0.0000000E+0000    0.0000000E+0000    0.0000000E+0000    0.1542542E+0002    0.0000000E+0000    0.0000000E+0000    0.0000000E+0000    0.1465445E+0002
 0.1347317E+0002    0.0000000E+0000    0.0000000E+0000    0.0000000E+0000    0.1553521E+0002    0.0000000E+0000    0.0000000E+0000    0.0000000E+0000    0.1460095E+0002
 0.1354474E+0002    0.0000000E+0000    0.0000000E+0000    0.0000000E+0000    0.1562214E+0002    0.0000000E+0000    0.0000000E+0000    0.0000000E+0000    0.1462542E+0002
 0.1346139E+0002    0.0000000E+0000    0.0000000E+0000    0.0000000E+0000    0.1550795E+0002    0.0000000E+0000    0.0000000E+0000    0.0000000E+0000    0.1459558E+0002
 0.1346967E+0002    0.0000000E+0000    0.0000000E+0000    0.0000000E+0000    0.1553118E+0002    0.0000000E+0000    0.0000000E+0000    0.0000000E+0000    0.1459716E+0002
 0.1347905E+0002    0.0000000E+0000    0.0000000E+0000    0.0000000E+0000    0.1562920E+0002    0.0000000E+0000    0.0000000E+0000    0.0000000E+0000    0.1468028E+0002
 0.1364519E+0002    0.0000000E+0000    0.0000000E+0000    0.0000000E+0000    0.1552554E+0002    0.0000000E+0000    0.0000000E+0000    0.0000000E+0000    0.1480981E+0002
 0.1353114E+0002    0.0000000E+0000    0.0000000E+0000    0.0000000E+0000    0.1560645E+0002    0.0000000E+0000    0.0000000E+0000    0.0000000E+0000    0.1461073E+0002
 0.1356595E+0002    0.0000000E+0000    0.0000000E+0000    0.0000000E+0000    0.1562896E+0002    0.0000000E+0000    0.0000000E+0000    0.0000000E+0000    0.1479185E+0002
 0.1336735E+0002    0.0000000E+0000    0.0000000E+0000    0.0000000E+0000    0.1546081E+0002    0.0000000E+0000    0.0000000E+0000    0.0000000E+0000    0.1468807E+0002
 0.1368371E+0002    0.0000000E+0000    0.0000000E+0000    0.0000000E+0000    0.1565896E+0002    0.0000000E+0000    0.0000000E+0000    0.0000000E+0000    0.1462751E+0002
 0.1361702E+0002    0.0000000E+0000    0.0000000E+0000    0.0000000E+0000    0.1551173E+0002    0.0000000E+0000    0.0000000E+0000    0.0000000E+0000    0.1484648E+0002
 0.1327048E+0002    0.0000000E+0000    0.0000000E+0000    0.0000000E+0000    0.1528857E+0002    0.0000000E+0000    0.0000000E+0000    0.0000000E+0000    0.1446968E+0002
 0.1368098E+0002    0.0000000E+0000    0.0000000E+0000    0.0000000E+0000    0.1565583E+0002    0.0000000E+0000    0.0000000E+0000    0.0000000E+0000    0.1462458E+0002
 0.1347631E+0002    0.0000000E+0000    0.0000000E+0000    0.0000000E+0000    0.1550718E+0002    0.0000000E+0000    0.0000000E+0000    0.0000000E+0000    0.1483353E+0002
 0.1355818E+0002    0.0000000E+0000    0.0000000E+0000    0.0000000E+0000    0.1562001E+0002    0.0000000E+0000    0.0000000E+0000    0.0000000E+0000    0.1478338E+0002
 0.1363139E+0002    0.0000000E+0000    0.0000000E+0000    0.0000000E+0000    0.1550984E+0002    0.0000000E+0000    0.0000000E+0000    0.0000000E+0000    0.1479483E+0002
 0.1346392E+0002    0.0000000E+0000    0.0000000E+0000    0.0000000E+0000    0.1551087E+0002    0.0000000E+0000    0.0000000E+0000    0.0000000E+0000    0.1459832E+0002
 0.1352989E+0002    0.0000000E+0000    0.0000000E+0000    0.0000000E+0000    0.1560958E+0002    0.0000000E+0000    0.0000000E+0000    0.0000000E+0000    0.1461402E+0002
 0.1342670E+0002    0.0000000E+0000    0.0000000E+0000    0.0000000E+0000    0.1553680E+0002    0.0000000E+0000    0.0000000E+0000    0.0000000E+0000    0.1463669E+0002
 0.1331746E+0002    0.0000000E+0000    0.0000000E+0000    0.0000000E+0000    0.1514716E+0002    0.0000000E+0000    0.0000000E+0000    0.0000000E+0000    0.1429247E+0002
 0.1361527E+0002    0.0000000E+0000    0.0000000E+0000    0.0000000E+0000    0.1548386E+0002    0.0000000E+0000    0.0000000E+0000    0.0000000E+0000    0.1476045E+0002
 0.1348745E+0002    0.0000000E+0000    0.0000000E+0000    0.0000000E+0000    0.1556061E+0002    0.0000000E+0000    0.0000000E+0000    0.0000000E+0000    0.1456818E+0002
 0.1349476E+0002    0.0000000E+0000    0.0000000E+0000    0.0000000E+0000    0.1546809E+0002    0.0000000E+0000    0.0000000E+0000    0.0000000E+0000    0.1481346E+0002
 0.1343640E+0002    0.0000000E+0000    0.0000000E+0000    0.0000000E+0000    0.1551164E+0002    0.0000000E+0000    0.0000000E+0000    0.0000000E+0000    0.1486191E+0002
 0.1359613E+0002    0.0000000E+0000    0.0000000E+0000    0.0000000E+0000    0.1572923E+0002    0.0000000E+0000    0.0000000E+0000    0.0000000E+0000    0.1461762E+0002
 0.1310828E+0002    0.0000000E+0000    0.0000000E+0000    0.0000000E+0000    0.1539880E+0002    0.0000000E+0000    0.0000000E+0000    0.0000000E+0000    0.1422660E+0002
 0.1364068E+0002    0.0000000E+0000    0.0000000E+0000    0.0000000E+0000    0.1566728E+0002    0.0000000E+0000    0.0000000E+0000    0.0000000E+0000    0.1460824E+0002
 0.1359661E+0002    0.0000000E+0000    0.0000000E+0000    0.0000000E+0000    0.1554761E+0002    0.0000000E+0000    0.0000000E+0000    0.0000000E+0000    0.1458646E+0002
 0.1367483E+0002    0.0000000E+0000    0.0000000E+0000    0.0000000E+0000    0.1553990E+0002    0.0000000E+0000    0.0000000E+0000    0.0000000E+0000    0.1469172E+0002
 0.1343653E+0002    0.0000000E+0000    0.0000000E+0000    0.0000000E+0000    0.1578011E+0002    0.0000000E+0000    0.0000000E+0000    0.0000000E+0000    0.1481380E+0002
 0.1353458E+0002    0.0000000E+0000    0.0000000E+0000    0.0000000E+0000    0.1565802E+0002    0.0000000E+0000    0.0000000E+0000    0.0000000E+0000    0.1455145E+0002
 0.1366938E+0002    0.0000000E+0000    0.0000000E+0000    0.0000000E+0000    0.1570024E+0002    0.0000000E+0000    0.0000000E+0000    0.0000000E+0000    0.1463897E+0002
 0.1346218E+0002    0.0000000E+0000    0.0000000E+0000    0.0000000E+0000    0.1581025E+0002    0.0000000E+0000    0.0000000E+0000    0.0000000E+0000    0.1484208E+0002
 0.1361153E+0002    0.0000000E+0000    0.0000000E+0000    0.0000000E+0000    0.1548163E+0002    0.0000000E+0000    0.0000000E+0000    0.0000000E+0000    0.1460807E+0002
 0.1316598E+0002    0.0000000E+0000    0.0000000E+0000    0.0000000E+0000    0.1546658E+0002    0.0000000E+0000    0.0000000E+0000    0.0000000E+0000    0.1428922E+0002
 0.1350670E+0002    0.0000000E+0000    0.0000000E+0000    0.0000000E+0000    0.1573687E+0002    0.0000000E+0000    0.0000000E+0000    0.0000000E+0000    0.1458083E+0002
 0.1344633E+0002    0.0000000E+0000    0.0000000E+0000    0.0000000E+0000    0.1576464E+0002    0.0000000E+0000    0.0000000E+0000    0.0000000E+0000    0.1458167E+0002
 0.1363961E+0002    0.0000000E+0000    0.0000000E+0000    0.0000000E+0000    0.1560727E+0002    0.0000000E+0000    0.0000000E+0000    0.0000000E+0000    0.1478442E+0002
 0.1352801E+0002    0.0000000E+0000    0.0000000E+0000    0.0000000E+0000    0.1575546E+0002    0.0000000E+0000    0.0000000E+0000    0.0000000E+0000    0.1484582E+0002
 0.1369423E+0002    0.0000000E+0000    0.0000000E+0000    0.0000000E+0000    0.1566976E+0002    0.0000000E+0000    0.0000000E+0000    0.0000000E+0000    0.1484363E+0002
 0.1351523E+0002    0.0000000E+0000    0.0000000E+0000    0.0000000E+0000    0.1579342E+0002    0.0000000E+0000    0.0000000E+0000    0.0000000E+0000    0.1463927E+0002
 0.1346238E+0002    0.0000000E+0000    0.0000000E+0000    0.0000000E+0000    0.1553454E+0002    0.0000000E+0000    0.0000000E+0000    0.0000000E+0000    0.1469282E+0002
 0.1369326E+0002    0.0000000E+0000    0.0000000E+0000    0.0000000E+0000    0.1553810E+0002    0.0000000E+0000    0.0000000E+0000    0.0000000E+0000    0.1479583E+0002
 0.1351065E+0002    0.0000000E+0000    0.0000000E+0000    0.0000000E+0000    0.1555631E+0002    0.0000000E+0000    0.0000000E+0000    0.0000000E+0000    0.1459486E+0002
 0.1361101E+0002    0.0000000E+0000    0.0000000E+0000    0.0000000E+0000    0.1574925E+0002    0.0000000E+0000    0.0000000E+0000    0.0000000E+0000    0.1467934E+0002
 0.1348531E+0002    0.0000000E+0000    0.0000000E+0000    0.0000000E+0000    0.1560380E+0002    0.0000000E+0000    0.0000000E+0000    0.0000000E+0000    0.1454377E+0002
 0.1366671E+0002    0.0000000E+0000    0.0000000E+0000    0.0000000E+0000    0.1573588E+0002    0.0000000E+0000    0.0000000E+0000    0.0000000E+0000    0.1464302E+0002
 0.1364843E+0002    0.0000000E+0000    0.0000000E+0000    0.0000000E+0000    0.1560560E+0002    0.0000000E+0000    0.0000000E+0000    0.0000000E+0000    0.1480642E+0002
 0.1343219E+0002    0.0000000E+0000    0.0000000E+0000    0.0000000E+0000    0.1553112E+0002    0.0000000E+0000    0.0000000E+0000    0.0000000E+0000    0.1457863E+0002
 0.1354206E+0002    0.0000000E+0000    0.0000000E+0000    0.0000000E+0000    0.1550634E+0002    0.0000000E+0000    0.0000000E+0000    0.0000000E+0000    0.1470401E+0002
 0.1343281E+0002    0.0000000E+0000    0.0000000E+0000    0.0000000E+0000    0.1570434E+0002    0.0000000E+0000    0.0000000E+0000    0.0000000E+0000    0.1457563E+0002
 0.1350908E+0002    0.0000000E+0000    0.0000000E+0000    0.0000000E+0000    0.1561469E+0002    0.0000000E+0000    0.0000000E+0000    0.0000000E+0000    0.1468151E+0002
 0.1352988E+0002    0.0000000E+0000    0.0000000E+0000    0.0000000E+0000    0.1570827E+0002    0.0000000E+0000    0.0000000E+0000    0.0000000E+0000    0.1462330E+0002
 0.1333264E+0002    0.0000000E+0000    0.0000000E+0000    0.0000000E+0000    0.1549987E+0002    0.0000000E+0000    0.0000000E+0000    0.0000000E+0000    0.1456897E+0002
 0.1359881E+0002    0.0000000E+0000    0.0000000E+0000    0.0000000E+0000    0.1570063E+0002    0.0000000E+0000    0.0000000E+0000    0.0000000E+0000    0.1485614E+0002
 0.1361623E+0002    0.0000000E+0000    0.0000000E+0000    0.0000000E+0000    0.1574391E+0002    0.0000000E+0000    0.0000000E+0000    0.0000000E+0000    0.1477837E+0002
 0.1351060E+0002    0.0000000E+0000    0.0000000E+0000    0.0000000E+0000    0.1566968E+0002    0.0000000E+0000    0.0000000E+0000    0.0000000E+0000    0.1468487E+0002
 0.1365976E+0002    0.0000000E+0000    0.0000000E+0000    0.0000000E+0000    0.1575027E+0002    0.0000000E+0000    0.0000000E+0000    0.0000000E+0000    0.1467414E+0002
 0.1326400E+0002    0.0000000E+0000    0.0000000E+0000    0.0000000E+0000    0.1536143E+0002    0.0000000E+0000    0.0000000E+0000    0.0000000E+0000    0.1438538E+0002
 0.1356190E+0002    0.0000000E+0000    0.0000000E+0000    0.0000000E+0000    0.1570506E+0002    0.0000000E+0000    0.0000000E+0000    0.0000000E+0000    0.1466691E+0002
 0.1357748E+0002    0.0000000E+0000    0.0000000E+0000    0.0000000E+0000    0.1556007E+0002    0.0000000E+0000    0.0000000E+0000    0.0000000E+0000    0.1478914E+0002
 0.1344597E+0002    0.0000000E+0000    0.0000000E+0000    0.0000000E+0000    0.1539633E+0002    0.0000000E+0000    0.0000000E+0000    0.0000000E+0000    0.1459968E+0002
 0.1350456E+0002    0.0000000E+0000    0.0000000E+0000    0.0000000E+0000    0.1564766E+0002    0.0000000E+0000    0.0000000E+0000    0.0000000E+0000    0.1463188E+0002
 0.1360176E+0002    0.0000000E+0000    0.0000000E+0000    0.0000000E+0000    0.1558788E+0002    0.0000000E+0000    0.0000000E+0000    0.0000000E+0000    0.1481558E+0002
 0.1354226E+0002    0.0000000E+0000    0.0000000E+0000    0.0000000E+0000    0.1563508E+0002    0.0000000E+0000    0.0000000E+0000    0.0000000E+0000    0.1476228E+0002