 0.1267207E+0002    0.0000000E+0000    0.0000000E+0000    0.0000000E+0000    0.1263961E+0002    0.0000000E+0000    0.0000000E+0000    0.0000000E+0000    0.1281515E+0002
 0.1279462E+0002    0.0000000E+0000    0.0000000E+0000    0.0000000E+0000    0.1260984E+0002    0.0000000E+0000    0.0000000E+0000    0.0000000E+0000    0.1281297E+0002
 0.1279908E+0002    0.0000000E+0000    0.0000000E+0000    0.0000000E+0000    0.1261423E+0002    0.0000000E+0000    0.0000000E+0000    0.0000000E+0000    0.1281743E+0002
 0.1262819E+0002    0.0000000E+0000    0.0000000E+0000    0.0000000E+0000    0.1270195E+0002    0.0000000E+0000    0.0000000E+0000    0.0000000E+0000    0.1283648E+0002
 0.1284779E+0002    0.0000000E+0000    0.0000000E+0000    0.0000000E+0000    0.1282172E+0002    0.0000000E+0000    0.0000000E+0000    0.0000000E+0000    0.1270448E+0002
 0.1266595E+0002    0.0000000E+0000    0.0000000E+0000    0.0000000E+0000    0.1273993E+0002    0.0000000E+0000    0.0000000E+0000    0.0000000E+0000    0.1287486E+0002
 0.1268735E+0002    0.0000000E+0000    0.0000000E+0000    0.0000000E+0000    0.1262058E+0002    0.0000000E+0000    0.0000000E+0000    0.0000000E+0000    0.1286738E+0002
 0.1265128E+0002    0.0000000E+0000    0.0000000E+0000    0.0000000E+0000    0.1272518E+0002    0.0000000E+0000    0.0000000E+0000    0.0000000E+0000    0.1285995E+0002
 0.1269974E+0002    0.0000000E+0000    0.0000000E+0000    0.0000000E+0000    0.1278066E+0002    0.0000000E+0000    0.0000000E+0000    0.0000000E+0000    0.1275107E+0002
 0.1264376E+0002    0.0000000E+0000    0.0000000E+0000    0.0000000E+0000    0.1271761E+0002    0.0000000E+0000    0.0000000E+0000    0.0000000E+0000    0.1285231E+0002
 0.1267596E+0002    0.0000000E+0000    0.0000000E+0000    0.0000000E+0000    0.1264349E+0002    0.0000000E+0000    0.0000000E+0000    0.0000000E+0000    0.1281909E+0002
 0.1265823E+0002    0.0000000E+0000    0.0000000E+0000    0.0000000E+0000    0.1262580E+0002    0.0000000E+0000    0.0000000E+0000    0.0000000E+0000    0.1280116E+0002
 0.1269666E+0002    0.0000000E+0000    0.0000000E+0000    0.0000000E+0000    0.1277756E+0002    0.0000000E+0000    0.0000000E+0000    0.0000000E+0000    0.1274798E+0002
 0.1265919E+0002    0.0000000E+0000    0.0000000E+0000    0.0000000E+0000    0.1262676E+0002    0.0000000E+0000    0.0000000E+0000    0.0000000E+0000    0.1280213E+0002
 0.1266225E+0002    0.0000000E+0000    0.0000000E+0000    0.0000000E+0000    0.1259561E+0002    0.0000000E+0000    0.0000000E+0000    0.0000000E+0000    0.1284193E+0002
 0.1284519E+0002    0.0000000E+0000    0.0000000E+0000    0.0000000E+0000    0.1281913E+0002    0.0000000E+0000    0.0000000E+0000    0.0000000E+0000    0.1270191E+0002
 0.1275652E+0002    0.0000000E+0000    0.0000000E+0000    0.0000000E+0000    0.1273939E+0002    0.0000000E+0000    0.0000000E+0000    0.0000000E+0000    0.1269589E+0002
 0.1260338E+0002    0.0000000E+0000    0.0000000E+0000    0.0000000E+0000    0.1261707E+0002    0.0000000E+0000    0.0000000E+0000    0.0000000E+0000    0.1259982E+0002
 0.1261896E+0002    0.0000000E+0000    0.0000000E+0000    0.0000000E+0000    0.1261357E+0002    0.0000000E+0000    0.0000000E+0000    0.0000000E+0000    0.1262622E+0002
 0.1268651E+0002    0.0000000E+0000    0.0000000E+0000    0.0000000E+0000    0.1266317E+0002    0.0000000E+0000    0.0000000E+0000    0.0000000E+0000    0.1260830E+0002
 0.1283421E+0002    0.0000000E+0000    0.0000000E+0000    0.0000000E+0000    0.1272088E+0002    0.0000000E+0000    0.0000000E+0000    0.0000000E+0000    0.1269683E+0002
 0.1258739E+0002    0.0000000E+0000    0.0000000E+0000    0.0000000E+0000    0.1260106E+0002    0.0000000E+0000    0.0000000E+0000    0.0000000E+0000    0.1258383E+0002
 0.1269333E+0002    0.0000000E+0000    0.0000000E+0000    0.0000000E+0000    0.1266471E+0002    0.0000000E+0000    0.0000000E+0000    0.0000000E+0000    0.1276666E+0002
 0.1260681E+0002    0.0000000E+0000    0.0000000E+0000    0.0000000E+0000    0.1259833E+0002    0.0000000E+0000    0.0000000E+0000    0.0000000E+0000    0.1259311E+0002
 0.1269444E+0002    0.0000000E+0000    0.0000000E+0000    0.0000000E+0000    0.1266581E+0002    0.0000000E+0000    0.0000000E+0000    0.0000000E+0000    0.1276777E+0002
 0.1283375E+0002    0.0000000E+0000    0.0000000E+0000    0.0000000E+0000    0.1272043E+0002    0.0000000E+0000    0.0000000E+0000    0.0000000E+0000    0.1269638E+0002
 0.1283204E+0002    0.0000000E+0000    0.0000000E+0000    0.0000000E+0000    0.1278624E+0002    0.0000000E+0000    0.0000000E+0000    0.0000000E+0000    0.1267333E+0002
 0.1283165E+0002    0.0000000E+0000    0.0000000E+0000    0.0000000E+0000    0.1278585E+0002    0.0000000E+0000    0.0000000E+0000    0.0000000E+0000    0.1267294E+0002
 0.1276331E+0002    0.0000000E+0000    0.0000000E+0000    0.0000000E+0000    0.1282928E+0002    0.0000000E+0000    0.0000000E+0000    0.0000000E+0000    0.1273226E+0002
 0.1269255E+0002    0.0000000E+0000    0.0000000E+0000    0.0000000E+0000    0.1260918E+0002    0.0000000E+0000    0.0000000E+0000    0.0000000E+0000    0.1261051E+0002
 0.1283063E+0002    0.0000000E+0000    0.0000000E+0000    0.0000000E+0000    0.1280718E+0002    0.0000000E+0000    0.0000000E+0000    0.0000000E+0000    0.1264917E+0002
 0.1266096E+0002    0.0000000E+0000    0.0000000E+0000    0.0000000E+0000    0.1270851E+0002    0.0000000E+0000    0.0000000E+0000    0.0000000E+0000    0.1265779E+0002
 0.1279040E+0002    0.0000000E+0000    0.0000000E+0000    0.0000000E+0000    0.1272972E+0002    0.0000000E+0000    0.0000000E+0000    0.0000000E+0000    0.1266794E+0002
 0.1259149E+0002    0.0000000E+0000    0.0000000E+0000    0.0000000E+0000    0.1262377E+0002    0.0000000E+0000    0.0000000E+0000    0.0000000E+0000    0.1269105E+0002
 0.1273325E+0002    0.0000000E+0000    0.0000000E+0000    0.0000000E+0000    0.1276835E+0002    0.0000000E+0000    0.0000000E+0000    0.0000000E+0000    0.1260624E+0002
 0.1223770E+0002    0.0000000E+0000    0.0000000E+0000    0.0000000E+0000    0.1205043E+0002    0.0000000E+0000    0.0000000E+0000    0.0000000E+0000    0.1206966E+0002
 0.1184013E+0002    0.0000000E+0000    0.0000000E+0000    0.0000000E+0000    0.1206260E+0002    0.0000000E+0000    0.0000000E+0000    0.0000000E+0000    0.1198639E+0002
 0.1219423E+0002    0.0000000E+0000    0.0000000E+0000    0.0000000E+0000    0.1200762E+0002    0.0000000E+0000    0.0000000E+0000    0.0000000E+0000    0.1202679E+0002
 0.1189347E+0002    0.0000000E+0000    0.0000000E+0000    0.0000000E+0000    0.1183411E+0002    0.0000000E+0000    0.0000000E+0000    0.0000000E+0000    0.1188330E+0002
 0.1207533E+0002    0.0000000E+0000    0.0000000E+0000    0.0000000E+0000    0.1224082E+0002    0.0000000E+0000    0.0000000E+0000    0.0000000E+0000    0.1212669E+0002
 0.1212781E+0002    0.0000000E+0000    0.0000000E+0000    0.0000000E+0000    0.1194883E+0002    0.0000000E+0000    0.0000000E+0000    0.0000000E+0000    0.1210611E+0002
 0.1211331E+0002    0.0000000E+0000    0.0000000E+0000    0.0000000E+0000    0.1215533E+0002    0.0000000E+0000    0.0000000E+0000    0.0000000E+0000    0.1219496E+0002
 0.1187573E+0002    0.0000000E+0000    0.0000000E+0000    0.0000000E+0000    0.1190191E+0002    0.0000000E+0000    0.0000000E+0000    0.0000000E+0000    0.1203927E+0002
 0.1205713E+0002    0.0000000E+0000    0.0000000E+0000    0.0000000E+0000    0.1186932E+0002    0.0000000E+0000    0.0000000E+0000    0.0000000E+0000    0.1197425E+0002
 0.1202349E+0002    0.0000000E+0000    0.0000000E+0000    0.0000000E+0000    0.1214711E+0002    0.0000000E+0000    0.0000000E+0000    0.0000000E+0000    0.1201435E+0002
 0.1199685E+0002    0.0000000E+0000    0.0000000E+0000    0.0000000E+0000    0.1182632E+0002    0.0000000E+0000    0.0000000E+0000    0.0000000E+0000    0.1193305E+0002
 0.1201521E+0002    0.0000000E+0000    0.0000000E+0000    0.0000000E+0000    0.1204982E+0002    0.0000000E+0000    0.0000000E+0000    0.0000000E+0000    0.1199261E+0002
 0.1181517E+0002    0.0000000E+0000    0.0000000E+0000    0.0000000E+0000    0.1203713E+0002    0.0000000E+0000    0.0000000E+0000    0.0000000E+0000    0.1203193E+0002
 0.1211015E+0002    0.0000000E+0000    0.0000000E+0000    0.0000000E+0000    0.1223465E+0002    0.0000000E+0000    0.0000000E+0000    0.0000000E+0000    0.1210095E+0002
 0.1189438E+0002    0.0000000E+0000    0.0000000E+0000    0.0000000E+0000    0.1208093E+0002    0.0000000E+0000    0.0000000E+0000    0.0000000E+0000    0.1191091E+0002
 0.1205092E+0002    0.0000000E+0000    0.0000000E+0000    0.0000000E+0000    0.1196078E+0002    0.0000000E+0000    0.0000000E+0000    0.0000000E+0000    0.1204409E+0002
 0.1221164E+0002    0.0000000E+0000    0.0000000E+0000    0.0000000E+0000    0.1216102E+0002    0.0000000E+0000    0.0000000E+0000    0.0000000E+0000    0.1201702E+0002
 0.1190390E+0002    0.0000000E+0000    0.0000000E+0000    0.0000000E+0000    0.1195009E+0002    0.0000000E+0000    0.0000000E+0000    0.0000000E+0000    0.1194395E+0002
 0.1257168E+0002    0.0000000E+0000    0.0000000E+0000    0.0000000E+0000    0.1253015E+0002    0.0000000E+0000    0.0000000E+0000    0.0000000E+0000    0.1255316E+0002
 0.1259419E+0002    0.0000000E+0000    0.0000000E+0000    0.0000000E+0000    0.1266775E+0002    0.0000000E+0000    0.0000000E+0000    0.0000000E+0000    0.1280192E+0002
 0.1263562E+0002    0.0000000E+0000    0.0000000E+0000    0.0000000E+0000    0.1271613E+0002    0.0000000E+0000    0.0000000E+0000    0.0000000E+0000    0.1268669E+0002
 0.1238430E+0002    0.0000000E+0000    0.0000000E+0000    0.0000000E+0000    0.1231912E+0002    0.0000000E+0000    0.0000000E+0000    0.0000000E+0000    0.1256003E+0002
 0.1281205E+0002    0.0000000E+0000    0.0000000E+0000    0.0000000E+0000    0.1278606E+0002    0.0000000E+0000    0.0000000E+0000    0.0000000E+0000    0.1266915E+0002
 0.1277120E+0002    0.0000000E+0000    0.0000000E+0000    0.0000000E+0000    0.1273436E+0002    0.0000000E+0000    0.0000000E+0000    0.0000000E+0000    0.1272070E+0002
 0.1278383E+0002    0.0000000E+0000    0.0000000E+0000    0.0000000E+0000    0.1259921E+0002    0.0000000E+0000    0.0000000E+0000    0.0000000E+0000    0.1280216E+0002
 0.1271519E+0002    0.0000000E+0000    0.0000000E+0000    0.0000000E+0000    0.1253156E+0002    0.0000000E+0000    0.0000000E+0000    0.0000000E+0000    0.1273342E+0002
 0.1272790E+0002    0.0000000E+0000    0.0000000E+0000    0.0000000E+0000    0.1269119E+0002    0.0000000E+0000    0.0000000E+0000    0.0000000E+0000    0.1267757E+0002
 0.1276010E+0002    0.0000000E+0000    0.0000000E+0000    0.0000000E+0000    0.1272330E+0002    0.0000000E+0000    0.0000000E+0000    0.0000000E+0000    0.1270964E+0002
 0.1270181E+0002    0.0000000E+0000    0.0000000E+0000    0.0000000E+0000    0.1266230E+0002    0.0000000E+0000    0.0000000E+0000    0.0000000E+0000    0.1275174E+0002
 0.1221910E+0002    0.0000000E+0000    0.0000000E+0000    0.0000000E+0000    0.1218386E+0002    0.0000000E+0000    0.0000000E+0000    0.0000000E+0000    0.1217079E+0002
 0.1254639E+0002    0.0000000E+0000    0.0000000E+0000    0.0000000E+0000    0.1261967E+0002    0.0000000E+0000    0.0000000E+0000    0.0000000E+0000    0.1275333E+0002
 0.1275582E+0002    0.0000000E+0000    0.0000000E+0000    0.0000000E+0000    0.1272994E+0002    0.0000000E+0000    0.0000000E+0000    0.0000000E+0000    0.1261354E+0002
 0.1272686E+0002    0.0000000E+0000    0.0000000E+0000    0.0000000E+0000    0.1268727E+0002    0.0000000E+0000    0.0000000E+0000    0.0000000E+0000    0.1277689E+0002
 0.1275732E+0002    0.0000000E+0000    0.0000000E+0000    0.0000000E+0000    0.1257308E+0002    0.0000000E+0000    0.0000000E+0000    0.0000000E+0000    0.1277562E+0002
 0.1210166E+0002    0.0000000E+0000    0.0000000E+0000    0.0000000E+0000    0.1206401E+0002    0.0000000E+0000    0.0000000E+0000    0.0000000E+0000    0.1214923E+0002
 0.1275156E+0002    0.0000000E+0000    0.0000000E+0000    0.0000000E+0000    0.1271479E+0002    0.0000000E+0000    0.0000000E+0000    0.0000000E+0000    0.1270114E+0002
 0.1259944E+0002    0.0000000E+0000    0.0000000E+0000    0.0000000E+0000    0.1259096E+0002    0.0000000E+0000    0.0000000E+0000    0.0000000E+0000    0.1258575E+0002
 0.1251927E+0002    0.0000000E+0000    0.0000000E+0000    0.0000000E+0000    0.1250246E+0002    0.0000000E+0000    0.0000000E+0000    0.0000000E+0000    0.1245977E+0002
 0.1280739E+0002    0.0000000E+0000    0.0000000E+0000    0.0000000E+0000    0.1276168E+0002    0.0000000E+0000    0.0000000E+0000    0.0000000E+0000    0.1264899E+0002
 0.1279273E+0002    0.0000000E+0000    0.0000000E+0000    0.0000000E+0000    0.1282692E+0002    0.0000000E+0000    0.0000000E+0000    0.0000000E+0000    0.1258400E+0002
 0.1217236E+0002    0.0000000E+0000    0.0000000E+0000    0.0000000E+0000    0.1214995E+0002    0.0000000E+0000    0.0000000E+0000    0.0000000E+0000    0.1209732E+0002
 0.1267046E+0002    0.0000000E+0000    0.0000000E+0000    0.0000000E+0000    0.1254619E+0002    0.0000000E+0000    0.0000000E+0000    0.0000000E+0000    0.1274480E+0002
 0.1265013E+0002    0.0000000E+0000    0.0000000E+0000    0.0000000E+0000    0.1261902E+0002    0.0000000E+0000    0.0000000E+0000    0.0000000E+0000    0.1268790E+0002
 0.1259993E+0002    0.0000000E+0000    0.0000000E+0000    0.0000000E+0000    0.1259145E+0002    0.0000000E+0000    0.0000000E+0000    0.0000000E+0000    0.1258623E+0002
 0.1270839E+0002    0.0000000E+0000    0.0000000E+0000    0.0000000E+0000    0.1258956E+0002    0.0000000E+0000    0.0000000E+0000    0.0000000E+0000    0.1275067E+0002
 0.1279255E+0002    0.0000000E+0000    0.0000000E+0000    0.0000000E+0000    0.1282675E+0002    0.0000000E+0000    0.0000000E+0000    0.0000000E+0000    0.1258383E+0002
 0.1264243E+0002    0.0000000E+0000    0.0000000E+0000    0.0000000E+0000    0.1267148E+0002    0.0000000E+0000    0.0000000E+0000    0.0000000E+0000    0.1271083E+0002
 0.1258718E+0002    0.0000000E+0000    0.0000000E+0000    0.0000000E+0000    0.1257871E+0002    0.0000000E+0000    0.0000000E+0000    0.0000000E+0000    0.1257350E+0002
 0.1271049E+0002    0.0000000E+0000    0.0000000E+0000    0.0000000E+0000    0.1277619E+0002    0.0000000E+0000    0.0000000E+0000    0.0000000E+0000    0.1267955E+0002
 0.1272755E+0002    0.0000000E+0000    0.0000000E+0000    0.0000000E+0000    0.1266002E+0002    0.0000000E+0000    0.0000000E+0000    0.0000000E+0000    0.1266172E+0002
 0.1271748E+0002    0.0000000E+0000    0.0000000E+0000    0.0000000E+0000    0.1259274E+0002    0.0000000E+0000    0.0000000E+0000    0.0000000E+0000    0.1279209E+0002
 0.1255408E+0002    0.0000000E+0000    0.0000000E+0000    0.0000000E+0000    0.1256771E+0002    0.0000000E+0000    0.0000000E+0000    0.0000000E+0000    0.1255052E+0002
 0.1268412E+0002    0.0000000E+0000    0.0000000E+0000    0.0000000E+0000    0.1264804E+0002    0.0000000E+0000    0.0000000E+0000    0.0000000E+0000    0.1275839E+0002
 0.1278702E+0002    0.0000000E+0000    0.0000000E+0000    0.0000000E+0000    0.1272636E+0002    0.0000000E+0000    0.0000000E+0000    0.0000000E+0000    0.1266460E+0002
 0.1272321E+0002    0.0000000E+0000    0.0000000E+0000    0.0000000E+0000    0.1267627E+0002    0.0000000E+0000    0.0000000E+0000    0.0000000E+0000    0.1257110E+0002
 0.1255412E+0002    0.0000000E+0000    0.0000000E+0000    0.0000000E+0000    0.1262750E+0002    0.0000000E+0000    0.0000000E+0000    0.0000000E+0000    0.1258762E+0002
 0.1263186E+0002    0.0000000E+0000    0.0000000E+0000    0.0000000E+0000    0.1260923E+0002    0.0000000E+0000    0.0000000E+0000    0.0000000E+0000    0.1264995E+0002
 0.1252168E+0002    0.0000000E+0000    0.0000000E+0000    0.0000000E+0000    0.1255378E+0002    0.0000000E+0000    0.0000000E+0000    0.0000000E+0000    0.1262067E+0002
 0.1259020E+0002    0.0000000E+0000    0.0000000E+0000    0.0000000E+0000    0.1272793E+0002    0.0000000E+0000    0.0000000E+0000    0.0000000E+0000    0.1276557E+0002
 0.1265145E+0002    0.0000000E+0000    0.0000000E+0000    0.0000000E+0000    0.1269895E+0002    0.0000000E+0000    0.0000000E+0000    0.0000000E+0000    0.1264827E+0002
 0.1258681E+0002    0.0000000E+0000    0.0000000E+0000    0.0000000E+0000    0.1266038E+0002    0.0000000E+0000    0.0000000E+0000    0.0000000E+0000    0.1262040E+0002
 0.1256618E+0002    0.0000000E+0000    0.0000000E+0000    0.0000000E+0000    0.1267470E+0002    0.0000000E+0000    0.0000000E+0000    0.0000000E+0000    0.1248635E+0002
 0.1262217E+0002    0.0000000E+0000    0.0000000E+0000    0.0000000E+0000    0.1261786E+0002    0.0000000E+0000    0.0000000E+0000    0.0000000E+0000    0.1257506E+0002
 0.1278334E+0002    0.0000000E+0000    0.0000000E+0000    0.0000000E+0000    0.1257861E+0002    0.0000000E+0000    0.0000000E+0000    0.0000000E+0000    0.1279758E+0002
 0.1255972E+0002    0.0000000E+0000    0.0000000E+0000    0.0000000E+0000    0.1277306E+0002    0.0000000E+0000    0.0000000E+0000    0.0000000E+0000    0.1261380E+0002
 0.1269652E+0002    0.0000000E+0000    0.0000000E+0000    0.0000000E+0000    0.1264968E+0002    0.0000000E+0000    0.0000000E+0000    0.0000000E+0000    0.1254473E+0002
 0.1261493E+0002    0.0000000E+0000    0.0000000E+0000    0.0000000E+0000    0.1256309E+0002    0.0000000E+0000    0.0000000E+0000    0.0000000E+0000    0.1257489E+0002
 0.1261440E+0002    0.0000000E+0000    0.0000000E+0000    0.0000000E+0000    0.1264221E+0002    0.0000000E+0000    0.0000000E+0000    0.0000000E+0000    0.1278811E+0002
 0.1234130E+0002    0.0000000E+0000    0.0000000E+0000    0.0000000E+0000    0.1246818E+0002    0.0000000E+0000    0.0000000E+0000    0.0000000E+0000    0.1233192E+0002
 0.1273127E+0002    0.0000000E+0000    0.0000000E+0000    0.0000000E+0000    0.1264972E+0002    0.0000000E+0000    0.0000000E+0000    0.0000000E+0000    0.1275277E+0002
 0.1268275E+0002    0.0000000E+0000    0.0000000E+0000    0.0000000E+0000    0.1272826E+0002    0.0000000E+0000    0.0000000E+0000    0.0000000E+0000    0.1266146E+0002
 0.1246928E+0002    0.0000000E+0000    0.0000000E+0000    0.0000000E+0000    0.1251254E+0002    0.0000000E+0000    0.0000000E+0000    0.0000000E+0000    0.1255334E+0002
 0.1221763E+0002    0.0000000E+0000    0.0000000E+0000    0.0000000E+0000    0.1226148E+0002    0.0000000E+0000    0.0000000E+0000    0.0000000E+0000    0.1219713E+0002
 0.1261672E+0002    0.0000000E+0000    0.0000000E+0000    0.0000000E+0000    0.1264454E+0002    0.0000000E+0000    0.0000000E+0000    0.0000000E+0000    0.1279047E+0002
 0.1241600E+0002    0.0000000E+0000    0.0000000E+0000    0.0000000E+0000    0.1244338E+0002    0.0000000E+0000    0.0000000E+0000    0.0000000E+0000    0.1258698E+0002
 0.1273524E+0002    0.0000000E+0000    0.0000000E+0000    0.0000000E+0000    0.1257250E+0002    0.0000000E+0000    0.0000000E+0000    0.0000000E+0000    0.1268921E+0002
 0.1263386E+0002    0.0000000E+0000    0.0000000E+0000    0.0000000E+0000    0.1271960E+0002    0.0000000E+0000    0.0000000E+0000    0.0000000E+0000    0.1258645E+0002
 0.1262048E+0002    0.0000000E+0000    0.0000000E+0000    0.0000000E+0000    0.1279345E+0002    0.0000000E+0000    0.0000000E+0000    0.0000000E+0000    0.1267416E+0002
 0.1245566E+0002    0.0000000E+0000    0.0000000E+0000    0.0000000E+0000    0.1268969E+0002    0.0000000E+0000    0.0000000E+0000    0.0000000E+0000    0.1260952E+0002
 0.1276548E+0002    0.0000000E+0000    0.0000000E+0000    0.0000000E+0000    0.1278493E+0002    0.0000000E+0000    0.0000000E+0000    0.0000000E+0000    0.1282375E+0002
 0.1278628E+0002    0.0000000E+0000    0.0000000E+0000    0.0000000E+0000    0.1282310E+0002    0.0000000E+0000    0.0000000E+0000    0.0000000E+0000    0.1276222E+0002
 0.1277505E+0002    0.0000000E+0000    0.0000000E+0000    0.0000000E+0000    0.1277317E+0002    0.0000000E+0000    0.0000000E+0000    0.0000000E+0000    0.1278031E+0002
 0.1265154E+0002    0.0000000E+0000    0.0000000E+0000    0.0000000E+0000    0.1269577E+0002    0.0000000E+0000    0.0000000E+0000    0.0000000E+0000    0.1269687E+0002
 0.1254797E+0002    0.0000000E+0000    0.0000000E+0000    0.0000000E+0000    0.1278369E+0002    0.0000000E+0000    0.0000000E+0000    0.0000000E+0000    0.1277817E+0002
 0.1251928E+0002    0.0000000E+0000    0.0000000E+0000    0.0000000E+0000    0.1233848E+0002    0.0000000E+0000    0.0000000E+0000    0.0000000E+0000    0.1253723E+0002
 0.1264168E+0002    0.0000000E+0000    0.0000000E+0000    0.0000000E+0000    0.1272223E+0002    0.0000000E+0000    0.0000000E+0000    0.0000000E+0000    0.1269278E+0002
 0.1272410E+0002    0.0000000E+0000    0.0000000E+0000    0.0000000E+0000    0.1268452E+0002    0.0000000E+0000    0.0000000E+0000    0.0000000E+0000    0.1277412E+0002
 0.1270081E+0002    0.0000000E+0000    0.0000000E+0000    0.0000000E+0000    0.1276293E+0002    0.0000000E+0000    0.0000000E+0000    0.0000000E+0000    0.1281169E+0002
 0.1263735E+0002    0.0000000E+0000    0.0000000E+0000    0.0000000E+0000    0.1257084E+0002    0.0000000E+0000    0.0000000E+0000    0.0000000E+0000    0.1281668E+0002
 0.1281266E+0002    0.0000000E+0000    0.0000000E+0000    0.0000000E+0000    0.1263167E+0002    0.0000000E+0000    0.0000000E+0000    0.0000000E+0000    0.1266926E+0002
 0.1248994E+0002    0.0000000E+0000    0.0000000E+0000    0.0000000E+0000    0.1245794E+0002    0.0000000E+0000    0.0000000E+0000    0.0000000E+0000    0.1263096E+0002
 0.1265139E+0002    0.0000000E+0000    0.0000000E+0000    0.0000000E+0000    0.1261898E+0002    0.0000000E+0000    0.0000000E+0000    0.0000000E+0000    0.1279424E+0002
 0.1278299E+0002    0.0000000E+0000    0.0000000E+0000    0.0000000E+0000    0.1274612E+0002    0.0000000E+0000    0.0000000E+0000    0.0000000E+0000    0.1273244E+0002
 0.1283476E+0002    0.0000000E+0000    0.0000000E+0000    0.0000000E+0000    0.1280872E+0002    0.0000000E+0000    0.0000000E+0000    0.0000000E+0000    0.1269160E+0002
 0.1268677E+0002    0.0000000E+0000    0.0000000E+0000    0.0000000E+0000    0.1276761E+0002    0.0000000E+0000    0.0000000E+0000    0.0000000E+0000    0.1273805E+0002
 0.1267224E+0002    0.0000000E+0000    0.0000000E+0000    0.0000000E+0000    0.1275299E+0002    0.0000000E+0000    0.0000000E+0000    0.0000000E+0000    0.1272346E+0002
 0.1256165E+0002    0.0000000E+0000    0.0000000E+0000    0.0000000E+0000    0.1263502E+0002    0.0000000E+0000    0.0000000E+0000    0.0000000E+0000    0.1276884E+0002
 0.1283142E+0002    0.0000000E+0000    0.0000000E+0000    0.0000000E+0000    0.1280540E+0002    0.0000000E+0000    0.0000000E+0000    0.0000000E+0000    0.1268830E+0002
 0.1276564E+0002    0.0000000E+0000    0.0000000E+0000    0.0000000E+0000    0.1258127E+0002    0.0000000E+0000    0.0000000E+0000    0.0000000E+0000    0.1278394E+0002
 0.1278293E+0002    0.0000000E+0000    0.0000000E+0000    0.0000000E+0000    0.1259832E+0002    0.0000000E+0000    0.0000000E+0000    0.0000000E+0000    0.1280126E+0002
 0.1254387E+0002    0.0000000E+0000    0.0000000E+0000    0.0000000E+0000    0.1261714E+0002    0.0000000E+0000    0.0000000E+0000    0.0000000E+0000    0.1275077E+0002
 0.1271733E+0002    0.0000000E+0000    0.0000000E+0000    0.0000000E+0000    0.1267777E+0002    0.0000000E+0000    0.0000000E+0000    0.0000000E+0000    0.1276733E+0002
 0.1252923E+0002    0.0000000E+0000    0.0000000E+0000    0.0000000E+0000    0.1259051E+0002    0.0000000E+0000    0.0000000E+0000    0.0000000E+0000    0.1263861E+0002
 0.1275939E+0002    0.0000000E+0000    0.0000000E+0000    0.0000000E+0000    0.1280562E+0002    0.0000000E+0000    0.0000000E+0000    0.0000000E+0000    0.1263472E+0002
 0.1241836E+0002    0.0000000E+0000    0.0000000E+0000    0.0000000E+0000    0.1238782E+0002    0.0000000E+0000    0.0000000E+0000    0.0000000E+0000    0.1245544E+0002
 0.1281494E+0002    0.0000000E+0000    0.0000000E+0000    0.0000000E+0000    0.1276921E+0002    0.0000000E+0000    0.0000000E+0000    0.0000000E+0000    0.1265645E+0002
 0.1261589E+0002    0.0000000E+0000    0.0000000E+0000    0.0000000E+0000    0.1264961E+0002    0.0000000E+0000    0.0000000E+0000    0.0000000E+0000    0.1241005E+0002
 0.1254072E+0002    0.0000000E+0000    0.0000000E+0000    0.0000000E+0000    0.1251765E+0002    0.0000000E+0000    0.0000000E+0000    0.0000000E+0000    0.1246341E+0002
 0.1279362E+0002    0.0000000E+0000    0.0000000E+0000    0.0000000E+0000    0.1282340E+0002    0.0000000E+0000    0.0000000E+0000    0.0000000E+0000    0.1260621E+0002
 0.1259902E+0002    0.0000000E+0000    0.0000000E+0000    0.0000000E+0000    0.1259054E+0002    0.0000000E+0000    0.0000000E+0000    0.0000000E+0000    0.1258532E+0002
 0.1281378E+0002    0.0000000E+0000    0.0000000E+0000    0.0000000E+0000    0.1276805E+0002    0.0000000E+0000    0.0000000E+0000    0.0000000E+0000    0.1265530E+0002
 0.1249458E+0002    0.0000000E+0000    0.0000000E+0000    0.0000000E+0000    0.1248617E+0002    0.0000000E+0000    0.0000000E+0000    0.0000000E+0000    0.1248100E+0002
 0.1259957E+0002    0.0000000E+0000    0.0000000E+0000    0.0000000E+0000    0.1257116E+0002    0.0000000E+0000    0.0000000E+0000    0.0000000E+0000    0.1267236E+0002
 0.1235535E+0002    0.0000000E+0000    0.0000000E+0000    0.0000000E+0000    0.1238374E+0002    0.0000000E+0000    0.0000000E+0000    0.0000000E+0000    0.1242219E+0002
 0.1264416E+0002    0.0000000E+0000    0.0000000E+0000    0.0000000E+0000    0.1267322E+0002    0.0000000E+0000    0.0000000E+0000    0.0000000E+0000    0.1271257E+0002
 0.1273619E+0002    0.0000000E+0000    0.0000000E+0000    0.0000000E+0000    0.1266861E+0002    0.0000000E+0000    0.0000000E+0000    0.0000000E+0000    0.1267032E+0002
 0.1260047E+0002    0.0000000E+0000    0.0000000E+0000    0.0000000E+0000    0.1261416E+0002    0.0000000E+0000    0.0000000E+0000    0.0000000E+0000    0.1259691E+0002
 0.1222876E+0002    0.0000000E+0000    0.0000000E+0000    0.0000000E+0000    0.1222354E+0002    0.0000000E+0000    0.0000000E+0000    0.0000000E+0000    0.1223579E+0002
 0.1267311E+0002    0.0000000E+0000    0.0000000E+0000    0.0000000E+0000    0.1273958E+0002    0.0000000E+0000    0.0000000E+0000    0.0000000E+0000    0.1260338E+0002
 0.1254814E+0002    0.0000000E+0000    0.0000000E+0000    0.0000000E+0000    0.1256177E+0002    0.0000000E+0000    0.0000000E+0000    0.0000000E+0000    0.1254459E+0002
 0.1269576E+0002    0.0000000E+0000    0.0000000E+0000    0.0000000E+0000    0.1257691E+0002    0.0000000E+0000    0.0000000E+0000    0.0000000E+0000    0.1276501E+0002
 0.1264825E+0002    0.0000000E+0000    0.0000000E+0000    0.0000000E+0000    0.1278661E+0002    0.0000000E+0000    0.0000000E+0000    0.0000000E+0000    0.1282442E+0002
 0.1249274E+0002    0.0000000E+0000    0.0000000E+0000    0.0000000E+0000    0.1262940E+0002    0.0000000E+0000    0.0000000E+0000    0.0000000E+0000    0.1266675E+0002
 0.1269037E+0002    0.0000000E+0000    0.0000000E+0000    0.0000000E+0000    0.1265911E+0002    0.0000000E+0000    0.0000000E+0000    0.0000000E+0000    0.1258889E+0002
 0.1272759E+0002    0.0000000E+0000    0.0000000E+0000    0.0000000E+0000    0.1278044E+0002    0.0000000E+0000    0.0000000E+0000    0.0000000E+0000    0.1273924E+0002
 0.1281215E+0002    0.0000000E+0000    0.0000000E+0000    0.0000000E+0000    0.1275726E+0002    0.0000000E+0000    0.0000000E+0000    0.0000000E+0000    0.1276015E+0002
 0.1260582E+0002    0.0000000E+0000    0.0000000E+0000    0.0000000E+0000    0.1267950E+0002    0.0000000E+0000    0.0000000E+0000    0.0000000E+0000    0.1263946E+0002
 0.1227847E+0002    0.0000000E+0000    0.0000000E+0000    0.0000000E+0000    0.1235023E+0002    0.0000000E+0000    0.0000000E+0000    0.0000000E+0000    0.1231124E+0002
 0.1260807E+0002    0.0000000E+0000    0.0000000E+0000    0.0000000E+0000    0.1272121E+0002    0.0000000E+0000    0.0000000E+0000    0.0000000E+0000    0.1271600E+0002
 0.1283805E+0002    0.0000000E+0000    0.0000000E+0000    0.0000000E+0000    0.1269765E+0002    0.0000000E+0000    0.0000000E+0000    0.0000000E+0000    0.1267462E+0002
 0.1265521E+0002    0.0000000E+0000    0.0000000E+0000    0.0000000E+0000    0.1265089E+0002    0.0000000E+0000    0.0000000E+0000    0.0000000E+0000    0.1260798E+0002
 0.1240757E+0002    0.0000000E+0000    0.0000000E+0000    0.0000000E+0000    0.1251472E+0002    0.0000000E+0000    0.0000000E+0000    0.0000000E+0000    0.1232874E+0002
 0.1267539E+0002    0.0000000E+0000    0.0000000E+0000    0.0000000E+0000    0.1278486E+0002    0.0000000E+0000    0.0000000E+0000    0.0000000E+0000    0.1259486E+0002
 0.1269666E+0002    0.0000000E+0000    0.0000000E+0000    0.0000000E+0000    0.1266054E+0002    0.0000000E+0000    0.0000000E+0000    0.0000000E+0000    0.1277100E+0002
 0.1282123E+0002    0.0000000E+0000    0.0000000E+0000    0.0000000E+0000    0.1276630E+0002    0.0000000E+0000    0.0000000E+0000    0.0000000E+0000    0.1276919E+0002
 0.1276120E+0002    0.0000000E+0000    0.0000000E+0000    0.0000000E+0000    0.1274715E+0002    0.0000000E+0000    0.0000000E+0000    0.0000000E+0000    0.1265342E+0002
 0.1281752E+0002    0.0000000E+0000    0.0000000E+0000    0.0000000E+0000    0.1261224E+0002    0.0000000E+0000    0.0000000E+0000    0.0000000E+0000    0.1283180E+0002
 0.1263507E+0002    0.0000000E+0000    0.0000000E+0000    0.0000000E+0000    0.1281248E+0002    0.0000000E+0000    0.0000000E+0000    0.0000000E+0000    0.1276212E+0002
 0.1261228E+0002    0.0000000E+0000    0.0000000E+0000    0.0000000E+0000    0.1266465E+0002    0.0000000E+0000    0.0000000E+0000    0.0000000E+0000    0.1262382E+0002
 0.1272441E+0002    0.0000000E+0000    0.0000000E+0000    0.0000000E+0000    0.1272422E+0002    0.0000000E+0000    0.0000000E+0000    0.0000000E+0000    0.1273239E+0002
 0.1270607E+0002    0.0000000E+0000    0.0000000E+0000    0.0000000E+0000    0.1261105E+0002    0.0000000E+0000    0.0000000E+0000    0.0000000E+0000    0.1269887E+0002
 0.1277225E+0002    0.0000000E+0000    0.0000000E+0000    0.0000000E+0000    0.1257330E+0002    0.0000000E+0000    0.0000000E+0000    0.0000000E+0000    0.1268447E+0002