 0.1264592E+0002    0.3264035E-0002    0.1138768E+0000    0.1221951E+0002   -0.5708357E+0000    0.7658366E+0000    0.1327376E+0002    0.5781038E+0000    0.5941067E+0000    0.1259626E+0002    0.3305873E+0001    0.3344016E+0001    0.1309605E+0002    0.3775303E+0001    0.4027734E+0001    0.1317977E+0002    0.2739304E+0001    0.2845955E+0001    0.3142560E+0001    0.3104803E+0001    0.1259153E+0002    0.2600839E+0001    0.3610813E+0001    0.1197558E+0002    0.3765090E+0001    0.3735104E+0001    0.1299002E+0002    0.3248870E+0001    0.1262767E+0002    0.3153195E+0001    0.3002109E+0001    0.1191166E+0002    0.3757534E+0001    0.3740189E+0001    0.1332579E+0002    0.3608335E+0001    0.4787188E+0001    0.1649633E+0001    0.4870934E+0001    0.5352289E+0001    0.1269184E+0001    0.5560934E+0001    0.5328489E+0001    0.2265344E+0001    0.4377234E+0001    0.1641349E+0001    0.1797903E+0001    0.1825305E+0001    0.2054689E+0001    0.1162164E+0001    0.2426586E+0001    0.2360739E+0001    0.2006583E+0001    0.1202476E+0001    0.1513790E+0001    0.4675503E+0001    0.4889134E+0001    0.1158351E+0001    0.5179603E+0001    0.5635034E+0001    0.1901729E+0001    0.5339202E+0001    0.4299634E+0001    0.4599988E+0001    0.4571503E+0001    0.1535326E+0001    0.5367388E+0001    0.4928303E+0001    0.1056936E+0001    0.5054788E+0001    0.3989703E+0001    0.2158346E+0001    0.1259708E+0002    0.1425240E+0000    0.6594082E+0001    0.1197976E+0002   -0.4576558E+0000    0.6970590E+0001    0.1208241E+0002    0.6340738E+0000    0.5943135E+0001    0.2227200E+0000    0.3232643E+0001    0.9662571E+0001   -0.2651798E+0000    0.3835703E+0001    0.9067852E+0001    0.7923198E+0000    0.2668964E+0001    0.9098352E+0001    0.3281549E+0001    0.3250274E+0001    0.6313334E+0001    0.2500629E+0001    0.3610204E+0001    0.5919235E+0001    0.3646740E+0001    0.2588583E+0001    0.5706734E+0001    0.3163339E+0001    0.1922740E+0000    0.9711861E+0001    0.2416930E+0001   -0.3757958E+0000    0.9950231E+0001    0.2820630E+0001    0.6767238E+0000    0.8918112E+0001    0.4933089E+0001    0.1667333E+0001    0.1135727E+0002    0.4450388E+0001    0.1103674E+0001    0.1072900E+0002    0.4217189E+0001    0.2185043E+0001    0.1175216E+0002    0.1816259E+0001    0.1696504E+0001    0.8038372E+0001    0.2231339E+0001    0.2357603E+0001    0.7464812E+0001    0.1208871E+0001    0.1200224E+0001    0.7455842E+0001    0.1840060E+0001    0.4940903E+0001    0.1113040E+0002    0.2229189E+0001    0.5405803E+0001    0.1036180E+0002    0.1093620E+0001    0.4481302E+0001    0.1070417E+0002    0.4806088E+0001    0.4695302E+0001    0.7915742E+0001    0.4949488E+0001    0.3972003E+0001    0.8564852E+0001    0.4382688E+0001    0.4239403E+0001    0.7169749E+0001    0.1257929E+0002    0.6308203E+0001    0.1238803E+0002    0.1212167E+0002    0.5826702E+0001    0.1308498E+0002    0.1331814E+0002    0.5712102E+0001    0.1214418E+0002    0.1709000E+0000    0.9576552E+0001    0.3085845E+0001   -0.4757487E+0000    0.1003475E+0002    0.2505065E+0001    0.4409709E+0000    0.1019050E+0002    0.3776035E+0001    0.2812129E+0001    0.9611282E+0001    0.1267616E+0002    0.3491660E+0001    0.8999103E+0001    0.1230650E+0002    0.2268139E+0001    0.9073583E+0001    0.1327616E+0002    0.3170949E+0001    0.6246102E+0001    0.3047616E+0001    0.2687039E+0001    0.6919147E+0001    0.2599065E+0001    0.3356280E+0001    0.5460902E+0001    0.2535506E+0001    0.4582188E+0001    0.7978293E+0001    0.4700934E+0001    0.5193888E+0001    0.8616513E+0001    0.4317734E+0001    0.3753990E+0001    0.7905523E+0001    0.4240534E+0001    0.1573250E+0001    0.7711263E+0001    0.1536066E+0001    0.1030640E+0001    0.8298523E+0001    0.2092246E+0001    0.9222098E+0000    0.7353083E+0001    0.9318055E+0000    0.1784380E+0001    0.1118314E+0002    0.4951535E+0001    0.2414229E+0001    0.1093506E+0002    0.5643834E+0001    0.1080520E+0001    0.1169197E+0002    0.5393935E+0001    0.4545188E+0001    0.1083390E+0002    0.1615045E+0001    0.4053589E+0001    0.1019494E+0002    0.1108786E+0001    0.4062890E+0001    0.1143781E+0002    0.2160845E+0001    0.1240078E+0002    0.6433977E+0001    0.6443407E+0001    0.1179615E+0002    0.7027408E+0001    0.6017134E+0001    0.1282794E+0002    0.7015318E+0001    0.7090576E+0001    0.1805700E+0000    0.9359562E+0001    0.9542202E+0001   -0.3993597E+0000    0.9986962E+0001    0.9058502E+0001    0.6721009E+0000    0.9963822E+0001    0.1009724E+0002    0.3325679E+0001    0.9481052E+0001    0.6526082E+0001    0.3890389E+0001    0.9984412E+0001    0.7138394E+0001    0.3924789E+0001    0.8792353E+0001    0.6232234E+0001    0.3226200E+0001    0.6296803E+0001    0.9400192E+0001    0.2893229E+0001    0.7097230E+0001    0.8991782E+0001    0.3921689E+0001    0.5892702E+0001    0.8842282E+0001    0.4912789E+0001    0.7794833E+0001    0.1136136E+0002    0.5221288E+0001    0.8471953E+0001    0.1077769E+0002    0.4268690E+0001    0.7300967E+0001    0.1079484E+0002    0.1547970E+0001    0.7952533E+0001    0.7960882E+0001    0.1953629E+0001    0.8731303E+0001    0.7591862E+0001    0.8172698E+0000    0.8295043E+0001    0.8520632E+0001    0.1456530E+0001    0.1116280E+0002    0.1127190E+0002    0.2129880E+0001    0.1049891E+0002    0.1150347E+0002    0.1570221E+0001    0.1195056E+0002    0.1182033E+0002    0.4712088E+0001    0.1112066E+0002    0.8077112E+0001    0.5328688E+0001    0.1067455E+0002    0.8666792E+0001    0.4172789E+0001    0.1169579E+0002    0.8635382E+0001    0.6294689E+0001    0.1255246E+0002    0.6242687E-0001    0.5704789E+0001    0.1199930E+0002    0.5718467E+0000    0.5755088E+0001    0.1312986E+0002   -0.4795529E+0000    0.6340323E+0001    0.3107583E+0001    0.2965295E+0001    0.6778297E+0001    0.3757703E+0001    0.3535245E+0001    0.6811711E+0001    0.2412213E+0001    0.2470445E+0001    0.9476294E+0001    0.3155113E+0001    0.6560686E-0001    0.9955194E+0001    0.2537013E+0001   -0.4950029E+0000    0.8917655E+0001    0.2715373E+0001    0.7017956E+0000    0.9354324E+0001    0.1251774E+0002    0.3230276E+0001    0.8849585E+0001    0.1201134E+0002    0.3881034E+0001    0.1006534E+0002    0.1293261E+0002    0.3761734E+0001    0.1093419E+0002    0.1528023E+0001    0.4776534E+0001    0.1031799E+0002    0.2075943E+0001    0.5286934E+0001    0.1162144E+0002    0.2131643E+0001    0.4451634E+0001    0.7918795E+0001    0.1585733E+0001    0.1462166E+0001    0.8537575E+0001    0.1023314E+0001    0.1948036E+0001    0.7584285E+0001    0.1011384E+0001    0.7715866E+0000    0.7962135E+0001    0.4771102E+0001    0.4893534E+0001    0.7489685E+0001    0.5566102E+0001    0.5152834E+0001    0.8556345E+0001    0.5046002E+0001    0.4190134E+0001    0.1127164E+0002    0.4841402E+0001    0.1607766E+0001    0.1082651E+0002    0.4221602E+0001    0.1001797E+0001    0.1177704E+0002    0.4259502E+0001    0.2206285E+0001    0.6176488E+0001    0.9717400E-0001    0.6414140E+0001    0.6861807E+0001    0.5723838E+0000    0.6923277E+0001    0.5636988E+0001   -0.3697158E+0000    0.7047222E+0001    0.6167188E+0001    0.3216574E+0001    0.9539202E+0001    0.6777365E+0001    0.2839543E+0001    0.8877802E+0001    0.5835289E+0001    0.2479963E+0001    0.1005669E+0002    0.9496194E+0001    0.3257073E+0001    0.6562068E+0001    0.1011721E+0002    0.3644683E+0001    0.7190138E+0001    0.8994705E+0001    0.4004203E+0001    0.6207034E+0001    0.9437774E+0001    0.2757403E-0001    0.9781021E+0001    0.9048695E+0001   -0.7614857E+0000    0.1016823E+0002    0.9936484E+0001    0.5366938E+0000    0.1041378E+0002    0.1133774E+0002    0.1615103E+0001    0.1113650E+0002    0.1178636E+0002    0.2176643E+0001    0.1049202E+0002    0.1202429E+0002    0.9909337E+0000    0.1134407E+0002    0.7959185E+0001    0.1493243E+0001    0.7767182E+0001    0.8519265E+0001    0.1109404E+0001    0.8446212E+0001    0.8477215E+0001    0.2126924E+0001    0.7237155E+0001    0.7923375E+0001    0.4849503E+0001    0.1105444E+0002    0.7361865E+0001    0.4238202E+0001    0.1052884E+0002    0.8426966E+0001    0.4251502E+0001    0.1163496E+0002    0.1121007E+0002    0.4751203E+0001    0.8012282E+0001    0.1079510E+0002    0.5510602E+0001    0.8446562E+0001    0.1185512E+0002    0.5141803E+0001    0.7378527E+0001    0.6190988E+0001    0.6001203E+0001    0.1836688E-0001    0.7064437E+0001    0.5922703E+0001   -0.3751130E+0000    0.5666688E+0001    0.6449892E+0001   -0.6772829E+0000    0.6364415E+0001    0.9739142E+0001    0.3151775E+0001    0.6823414E+0001    0.9039523E+0001    0.2676395E+0001    0.5686988E+0001    0.1005243E+0002    0.2530265E+0001    0.9686184E+0001    0.9382282E+0001    0.6595886E-0002    0.1024032E+0002    0.8822753E+0001   -0.5466529E+0000    0.8979605E+0001    0.8911283E+0001    0.4790367E+0000    0.9327765E+0001    0.5999903E+0001    0.3202335E+0001    0.9995555E+0001    0.6489309E+0001    0.3705234E+0001    0.9899385E+0001    0.5386003E+0001    0.2691275E+0001    0.1093451E+0002    0.7947943E+0001    0.4807834E+0001    0.1016457E+0002    0.8393713E+0001    0.5125334E+0001    0.1139606E+0002    0.8369913E+0001    0.4083334E+0001    0.8137885E+0001    0.7729113E+0001    0.1647265E+0001    0.8904796E+0001    0.7394763E+0001    0.2146965E+0001    0.7388935E+0001    0.7518373E+0001    0.1038496E+0001    0.7823956E+0001    0.1103988E+0002    0.5084534E+0001    0.7331219E+0001    0.1037217E+0002    0.4572935E+0001    0.7234936E+0001    0.1161923E+0002    0.5568934E+0001    0.1094649E+0002    0.1095872E+0002    0.1739405E+0001    0.1038133E+0002    0.1064065E+0002    0.1025737E+0001    0.1043735E+0002    0.1164733E+0002    0.2165155E+0001    0.6426294E+0001    0.6237203E+0001    0.6310435E+0001    0.5559489E+0001    0.6633364E+0001    0.6148734E+0001    0.6225488E+0001    0.5489502E+0001    0.6904930E+0001    0.6439180E+0001    0.9484122E+0001    0.9636551E+0001    0.6913995E+0001    0.9985992E+0001    0.1032819E+0002    0.6963453E+0001    0.8791533E+0001    0.9222052E+0001    0.9579464E+0001    0.9294012E+0001    0.6336634E+0001    0.9126064E+0001    0.8799653E+0001    0.7047042E+0001    0.8978195E+0001    0.1001994E+0002    0.6102634E+0001    0.9686004E+0001    0.6315003E+0001    0.9574252E+0001    0.9826744E+0001    0.7134222E+0001    0.1008968E+0002    0.9229874E+0001    0.5737303E+0001    0.1021914E+0002    0.1109452E+0002    0.7928713E+0001    0.1114155E+0002    0.1148160E+0002    0.8598903E+0001    0.1052798E+0002    0.1139805E+0002    0.7059782E+0001    0.1151906E+0002    0.7864766E+0001    0.7937763E+0001    0.8129222E+0001    0.8438515E+0001    0.7365163E+0001    0.8613362E+0001    0.7530625E+0001    0.7447493E+0001    0.7371654E+0001    0.7740725E+0001    0.1092106E+0002    0.1105277E+0002    0.8061235E+0001    0.1047686E+0002    0.1185113E+0002    0.7164834E+0001    0.1168136E+0002    0.1130907E+0002    0.1107385E+0002    0.1102891E+0002    0.8162512E+0001    0.1054082E+0002    0.1046671E+0002    0.7593172E+0001    0.1043156E+0002    0.1164834E+0002    0.8576372E+0001
 0.1275746E+0002    0.2862111E-0001    0.1278900E+0002    0.1216652E+0002    0.6047509E+0000    0.1230355E+0002    0.1326746E+0002    0.5899909E+0000    0.1339166E+0002    0.1272606E+0002    0.3159020E+0001    0.3228775E+0001    0.1314918E+0002    0.3813929E+0001    0.3778876E+0001    0.1324259E+0002    0.2490419E+0001    0.2770686E+0001    0.3154029E+0001    0.3146009E+0001    0.1525736E-0001    0.2547849E+0001    0.3383519E+0001   -0.7271824E+0000    0.3771049E+0001    0.3434719E+0001    0.7417071E+0000    0.3204179E+0001    0.2952111E-0001    0.3243286E+0001    0.2657839E+0001   -0.4730787E+0000    0.3833676E+0001    0.3775048E+0001    0.6064509E+0000    0.3761276E+0001    0.4761448E+0001    0.1557411E+0001    0.4832876E+0001    0.5270048E+0001    0.9685708E+0000    0.5416874E+0001    0.4292348E+0001    0.2161909E+0001    0.5396475E+0001    0.1590230E+0001    0.1588731E+0001    0.1664237E+0001    0.2169499E+0001    0.1296391E+0001    0.2355376E+0001    0.2090299E+0001    0.2159490E+0001    0.1061797E+0001    0.1662819E+0001    0.4644128E+0001    0.4790475E+0001    0.1338640E+0001    0.5271129E+0001    0.5428874E+0001    0.2393128E+0001    0.5069328E+0001    0.4343576E+0001    0.4793548E+0001    0.4741228E+0001    0.1616617E+0001    0.5185848E+0001    0.5277328E+0001    0.9378170E+0000    0.5459747E+0001    0.4276030E+0001    0.2075047E+0001    0.1274894E+0002    0.2317011E-0001    0.6360275E+0001    0.1206879E+0002    0.5930209E+0000    0.5995175E+0001    0.1330932E+0002   -0.6381286E+0000    0.5945975E+0001    0.1273442E+0002    0.3225599E+0001    0.9573999E+0001    0.1204116E+0002    0.3657129E+0001    0.9029339E+0001    0.1312526E+0002    0.2602689E+0001    0.8948459E+0001    0.3171359E+0001    0.3119809E+0001    0.6371475E+0001    0.3494549E+0001    0.3695620E+0001    0.7084107E+0001    0.2630568E+0001    0.3440239E+0001    0.5633075E+0001    0.3220769E+0001    0.2055111E-0001    0.9610469E+0001    0.3695148E+0001   -0.6489586E+0000    0.9087659E+0001    0.2805569E+0001    0.6306509E+0000    0.8995709E+0001    0.4801548E+0001    0.1559791E+0001    0.1115966E+0002    0.4266249E+0001    0.1006300E+0001    0.1055340E+0002    0.4245449E+0001    0.2122529E+0001    0.1168814E+0002    0.1682459E+0001    0.1524621E+0001    0.8047660E+0001    0.2040918E+0001    0.1936239E+0001    0.7265614E+0001    0.9232198E+0000    0.9747198E+0000    0.7819250E+0001    0.1587990E+0001    0.4715128E+0001    0.1117678E+0002    0.1022190E+0001    0.5002028E+0001    0.1189319E+0002    0.1017250E+0001    0.4189229E+0001    0.1057928E+0002    0.4796348E+0001    0.4729128E+0001    0.8036650E+0001    0.5521448E+0001    0.5143828E+0001    0.7514760E+0001    0.5143648E+0001    0.4072129E+0001    0.8604269E+0001    0.3307010E-0001    0.6364046E+0001    0.3696735E-0001   -0.7232196E+0000    0.6037228E+0001    0.5145472E+0000    0.6760099E+0000    0.6793880E+0001    0.6267271E+0000    0.6421008E-0001    0.9425234E+0001    0.3280506E+0001   -0.6281197E+0000    0.1001286E+0002    0.2985155E+0001   -0.3196598E+0000    0.8807546E+0001    0.3880076E+0001    0.3180879E+0001    0.9519455E+0001    0.7537362E-0002    0.2742709E+0001    0.9986095E+0001   -0.6870924E+0000    0.3426159E+0001    0.1010099E+0002    0.7241471E+0000    0.3227009E+0001    0.6272728E+0001    0.3182136E+0001    0.2592259E+0001    0.6769478E+0001    0.2681305E+0001    0.3654749E+0001    0.5706529E+0001    0.2518576E+0001    0.4714448E+0001    0.7916406E+0001    0.4765676E+0001    0.4163749E+0001    0.8397165E+0001    0.5353175E+0001    0.4382748E+0001    0.7214481E+0001    0.4206076E+0001    0.1651109E+0001    0.7905865E+0001    0.1561227E+0001    0.2395629E+0001    0.8207916E+0001    0.1028597E+0001    0.1204820E+0001    0.8602915E+0001    0.2056266E+0001    0.1651898E+0001    0.1109503E+0002    0.4830476E+0001    0.2197409E+0001    0.1051385E+0002    0.5364475E+0001    0.1052260E+0001    0.1055822E+0002    0.4332276E+0001    0.4792548E+0001    0.1105295E+0002    0.1624987E+0001    0.5418748E+0001    0.1155659E+0002    0.1117447E+0001    0.4336748E+0001    0.1157754E+0002    0.2288886E+0001    0.1759010E-0001    0.6306828E+0001    0.6377369E+0001   -0.4708897E+0000    0.6921490E+0001    0.5815074E+0001   -0.6225897E+0000    0.5716828E+0001    0.6825055E+0001    0.1276088E+0002    0.9497145E+0001    0.9647659E+0001    0.1340007E+0002    0.9916685E+0001    0.1022510E+0002    0.1318655E+0002    0.8709796E+0001    0.9287369E+0001    0.3138359E+0001    0.9456955E+0001    0.6478337E+0001    0.3619049E+0001    0.9975134E+0001    0.7118733E+0001    0.2583219E+0001    0.8915346E+0001    0.7059997E+0001    0.3151669E+0001    0.6314428E+0001    0.9538879E+0001    0.3501709E+0001    0.5638628E+0001    0.8933649E+0001    0.2435699E+0001    0.5890628E+0001    0.1001133E+0002    0.4719948E+0001    0.7865966E+0001    0.1122021E+0002    0.4226048E+0001    0.7258514E+0001    0.1066049E+0002    0.4148149E+0001    0.8341126E+0001    0.1180724E+0002    0.1567870E+0001    0.7878486E+0001    0.7910940E+0001    0.2161599E+0001    0.7462346E+0001    0.8573799E+0001    0.1162190E+0001    0.7212798E+0001    0.7388055E+0001    0.1588960E+0001    0.1109617E+0002    0.1121439E+0002    0.2030609E+0001    0.1156583E+0002    0.1051381E+0002    0.9332998E+0000    0.1168987E+0002    0.1163469E+0002    0.4778348E+0001    0.1100615E+0002    0.8055150E+0001    0.5088347E+0001    0.1023877E+0002    0.8521289E+0001    0.5389848E+0001    0.1144055E+0002    0.7507150E+0001    0.6388473E+0001    0.1259852E+0002    0.2185736E-0001    0.6932913E+0001    0.1307010E+0002    0.6539571E+0000    0.5811747E+0001    0.1322177E+0002   -0.4512025E+0000    0.6365456E+0001    0.3099739E+0001    0.3169896E+0001    0.6649936E+0001    0.2768379E+0001    0.2310665E+0001    0.5803048E+0001    0.2479750E+0001    0.3657875E+0001    0.9608154E+0001    0.3159289E+0001    0.1275513E+0002    0.1023023E+0002    0.2688529E+0001    0.1221711E+0002    0.1010919E+0002    0.3816329E+0001    0.1321177E+0002    0.9517734E+0001    0.1600111E-0001    0.3223616E+0001    0.1003763E+0002   -0.4287487E+0000    0.2534686E+0001    0.8959235E+0001   -0.6088787E+0000    0.3662876E+0001    0.1118501E+0002    0.1572581E+0001    0.4770576E+0001    0.1100329E+0002    0.7603908E+0000    0.4257176E+0001    0.1199282E+0002    0.1923729E+0001    0.4364676E+0001    0.8025135E+0001    0.1612501E+0001    0.1522677E+0001    0.8583915E+0001    0.1303141E+0001    0.2251626E+0001    0.8486815E+0001    0.1942439E+0001    0.7424071E+0000    0.8055545E+0001    0.4646428E+0001    0.4838376E+0001    0.8636085E+0001    0.4171929E+0001    0.5451974E+0001    0.7410085E+0001    0.4083029E+0001    0.4419876E+0001    0.1124974E+0002    0.4745829E+0001    0.1618597E+0001    0.1066506E+0002    0.5323928E+0001    0.2105367E+0001    0.1184210E+0002    0.4328328E+0001    0.2235036E+0001    0.6411447E+0001    0.2714111E-0001    0.6376575E+0001    0.6825804E+0001   -0.6898886E+0000    0.5856175E+0001    0.6972778E+0001    0.3724010E+0000    0.7055012E+0001    0.6447833E+0001    0.3184389E+0001    0.9531189E+0001    0.6966034E+0001    0.3738929E+0001    0.1012726E+0002    0.5938248E+0001    0.2508679E+0001    0.1000591E+0002    0.9637144E+0001    0.3176549E+0001    0.6393475E+0001    0.9265384E+0001    0.2471709E+0001    0.6929826E+0001    0.1020184E+0002    0.2760240E+0001    0.5707775E+0001    0.9586994E+0001    0.2750111E-0001    0.9647719E+0001    0.1008659E+0002   -0.6203486E+0000    0.9130089E+0001    0.9236394E+0001   -0.4576687E+0000    0.1040809E+0002    0.1122301E+0002    0.1616081E+0001    0.1118255E+0002    0.1083957E+0002    0.9863398E+0000    0.1055475E+0002    0.1181475E+0002    0.2297469E+0001    0.1084347E+0002    0.8004295E+0001    0.1604641E+0001    0.8033170E+0001    0.8243755E+0001    0.8515308E+0000    0.8559979E+0001    0.7622125E+0001    0.2247950E+0001    0.8627119E+0001    0.8076295E+0001    0.4732628E+0001    0.1119332E+0002    0.8797215E+0001    0.5154028E+0001    0.1071898E+0002    0.8507855E+0001    0.4251629E+0001    0.1192358E+0002    0.1126636E+0002    0.4678928E+0001    0.8047330E+0001    0.1073973E+0002    0.5258028E+0001    0.8601359E+0001    0.1072902E+0002    0.4234429E+0001    0.7375985E+0001    0.6359848E+0001    0.6300341E+0001    0.1280138E+0002    0.6950902E+0001    0.5673628E+0001    0.1237232E+0002    0.5865848E+0001    0.6853173E+0001    0.1221046E+0002    0.6334047E+0001    0.9406694E+0001    0.3257396E+0001    0.5723247E+0001    0.9784865E+0001    0.2657425E+0001    0.5937148E+0001    0.8724585E+0001    0.3806476E+0001    0.9635604E+0001    0.9442884E+0001    0.1227364E-0002    0.1011738E+0002    0.8781345E+0001   -0.5426624E+0000    0.8984985E+0001    0.9061314E+0001    0.5622472E+0000    0.9573244E+0001    0.6331274E+0001    0.3193176E+0001    0.9024615E+0001    0.6757176E+0001    0.2550226E+0001    0.9002675E+0001    0.5748328E+0001    0.3668375E+0001    0.1111440E+0002    0.7870636E+0001    0.4778776E+0001    0.1050982E+0002    0.8204696E+0001    0.5442775E+0001    0.1055582E+0002    0.7334515E+0001    0.4198376E+0001    0.7982755E+0001    0.7846096E+0001    0.1550627E+0001    0.7493855E+0001    0.8448445E+0001    0.2118786E+0001    0.7368797E+0001    0.7179534E+0001    0.1254877E+0001    0.8071795E+0001    0.1097182E+0002    0.4811976E+0001    0.8503745E+0001    0.1030975E+0002    0.5370975E+0001    0.7586625E+0001    0.1056421E+0002    0.4093875E+0001    0.1125346E+0002    0.1099774E+0002    0.1625997E+0001    0.1092061E+0002    0.1060071E+0002    0.8180071E+0000    0.1194699E+0002    0.1163884E+0002    0.1395947E+0001    0.6385447E+0001    0.6241228E+0001    0.6391075E+0001    0.7091157E+0001    0.5824028E+0001    0.5879875E+0001    0.5898148E+0001    0.6810995E+0001    0.5807275E+0001    0.6345248E+0001    0.9471484E+0001    0.9654509E+0001    0.6916905E+0001    0.1020599E+0002    0.9894979E+0001    0.5929348E+0001    0.8772685E+0001    0.1018338E+0002    0.9616874E+0001    0.9424835E+0001    0.6458418E+0001    0.9999434E+0001    0.9968074E+0001    0.7151603E+0001    0.8951915E+0001    0.8885696E+0001    0.6864395E+0001    0.9584954E+0001    0.6339405E+0001    0.9595159E+0001    0.9165034E+0001    0.6826262E+0001    0.8907459E+0001    0.1014748E+0002    0.6965794E+0001    0.1008128E+0002    0.1117874E+0002    0.7916326E+0001    0.1120470E+0002    0.1176684E+0002    0.8431806E+0001    0.1066847E+0002    0.1170930E+0002    0.7288568E+0001    0.1167642E+0002    0.7973785E+0001    0.7858956E+0001    0.7988650E+0001    0.7528285E+0001    0.8338735E+0001    0.8667449E+0001    0.7401055E+0001    0.7196852E+0001    0.7603270E+0001    0.7962195E+0001    0.1100024E+0002    0.1119760E+0002    0.8300945E+0001    0.1030505E+0002    0.1179010E+0002    0.7263704E+0001    0.1145839E+0002    0.1163777E+0002    0.1122614E+0002    0.1096611E+0002    0.8035810E+0001    0.1190214E+0002    0.1075118E+0002    0.8692519E+0001    0.1167205E+0002    0.1137366E+0002    0.7311018E+0001