 0.6131528E+0003    0.6144337E+0003    0.6337115E+0003    0.6083273E+0003    0.9353592E+0003    0.9475949E+0003    0.9210669E+0003    0.9158206E+0003    0.6009155E+0003    0.9313974E+0003    0.6129566E+0003    0.9290522E+0003    0.1080881E+0004    0.7744169E+0003    0.1095971E+0004    0.7751893E+0003    0.7888248E+0003    0.8000167E+0003    0.7627939E+0003    0.1068451E+0004    0.1097739E+0004    0.1062690E+0004    0.1058345E+0004    0.7718385E+0003    0.6084069E+0003    0.6279660E+0003    0.1812331E+0002    0.6373363E+0003    0.9282432E+0003    0.3162987E+0003    0.9345730E+0003    0.9299565E+0003    0.1236133E+0004    0.9230861E+0003    0.6328004E+0003    0.3210884E+0003    0.1095059E+0004    0.7761368E+0003    0.4809784E+0003    0.7921859E+0003    0.7789715E+0003    0.1584698E+0003    0.7944987E+0003    0.1094241E+0004    0.4589326E+0003    0.1082718E+0004    0.1070375E+0004    0.1465535E+0003    0.6066782E+0003    0.1227106E+0004    0.5811407E+0003    0.6323008E+0003    0.3164692E+0003    0.9225075E+0003    0.8889579E+0003    0.3198440E+0003    0.6091393E+0003    0.9238256E+0003    0.1221071E+0004    0.9187927E+0003    0.1060960E+0004    0.1611610E+0003    0.1079451E+0004    0.7685718E+0003    0.1352128E+0003    0.7719104E+0003    0.7890881E+0003    0.4725869E+0003    0.1103803E+0004    0.1057365E+0004    0.4386500E+0003    0.7795850E+0003    0.5893317E+0003    0.1109457E+0002    0.3481720E+0001    0.6332405E+0003    0.2953835E+0003    0.3046020E+0003    0.9388612E+0003    0.3071891E+0003    0.1151552E+0002    0.9291945E+0003    0.1225998E+0004    0.2908024E+0003    0.1093086E+0004    0.1433335E+0003    0.4813758E+0003    0.7661153E+0003    0.1586578E+0003    0.1509399E+0003    0.7572297E+0003    0.4706103E+0003    0.4726827E+0003    0.1073583E+0004    0.4665155E+0003    0.1622343E+0003    0.1227370E+0004    0.6056482E+0003    0.6287119E+0003    0.4164848E+0000    0.9160907E+0003    0.9107933E+0003    0.3051494E+0003    0.9207094E+0003    0.6290209E+0003    0.2932971E+0003    0.6022744E+0003    0.9365424E+0003    0.4468183E+0003    0.7625996E+0003    0.1086797E+0004    0.1538019E+0003    0.7682075E+0003    0.7647293E+0003    0.1580134E+0003    0.1077740E+0004    0.1098167E+0004    0.4796095E+0003    0.1084572E+0004    0.7788777E+0003    0.1215884E+0004    0.6235592E+0003    0.6377484E+0000    0.1214980E+0004    0.9266817E+0003    0.3043105E+0003    0.3070831E+0003    0.9306171E+0003    0.1501240E+0002    0.3014062E+0003    0.6167959E+0003    0.3278089E+0003    0.4860326E+0003    0.7710615E+0003    0.4595254E+0003    0.1577268E+0003    0.7592199E+0003    0.1321174E+0003    0.1542470E+0003    0.1085359E+0004    0.4515514E+0003    0.4736265E+0003    0.1075807E+0004    0.1559346E+0003    0.1217293E+0004    0.1197273E+0004    0.6244305E+0003    0.2757584E+0001    0.3322686E+0003    0.9289142E+0003    0.3255451E+0003    0.2975913E+0003    0.6232866E+0003    0.2907163E+0003    0.1197147E+0004    0.9338273E+0003    0.4468494E+0003    0.1582118E+0003    0.1089839E+0004    0.1750916E+0003    0.1369473E+0003    0.7827160E+0003    0.1445861E+0003    0.4586658E+0003    0.1116727E+0004    0.4480136E+0003    0.4507792E+0003    0.7916695E+0003    0.8770669E+0001    0.1220206E+0004    0.1235852E+0004    0.1002284E+0002    0.3074875E+0003    0.3137703E+0003    0.3151747E+0003    0.2890138E+0003    0.1238398E+0004    0.3255276E+0003    0.1227766E+0004    0.3077164E+0003    0.4623982E+0003    0.1563431E+0003    0.4600161E+0003    0.1485518E+0003    0.1572225E+0003    0.1672980E+0003    0.1364983E+0003    0.4471197E+0003    0.4513890E+0003    0.4603896E+0003    0.4575998E+0003    0.1705329E+0003    0.6741621E+0003    0.6702928E+0003    0.6803770E+0003    0.7682775E+0003    0.5471596E+0003    0.5259754E+0003    0.5527471E+0003    0.7104088E+0003    0.4796957E+0003    0.5717172E+0003    0.5586465E+0003    0.6970646E+0003    0.6650289E+0003    0.8803038E+0003    0.8991966E+0003    0.6568934E+0003    0.9809753E+0003    0.1014034E+0004    0.5136008E+0003    0.8212554E+0003    0.1055226E+0004    0.5287209E+0003    0.1028027E+0004    0.8370378E+0003    0.8450948E+0003    0.8091029E+0003    0.7394943E+0003    0.9815603E+0003    0.9770690E+0003    0.6396381E+0003    0.1025492E+0004    0.8264444E+0003    0.5193511E+0003    0.8684261E+0003    0.9649912E+0003    0.5410616E+0003    0.9791405E+0003    0.6807952E+0003    0.9732796E+0003    0.8153549E+0003    0.7270478E+0003    0.8584452E+0003    0.9074189E+0003    0.5433796E+0003    0.9877779E+0003    0.1010498E+0004    0.4973340E+0003    0.8326222E+0003    0.9700598E+0003    0.8656578E+0003    0.1177188E+0004    0.1133481E+0004    0.8342476E+0003    0.1047996E+0004    0.1135794E+0004    0.7374473E+0003    0.1163020E+0004    0.8586884E+0003    0.9649321E+0003    0.1197838E+0004    0.8004913E+0003    0.1132945E+0004    0.1040456E+0004    0.7282547E+0003    0.1117436E+0004    0.1170221E+0004    0.9418348E+0003    0.1144771E+0004    0.8690293E+0003    0.1106885E+0004    0.1001809E+0004    0.8323794E+0003    0.1137261E+0004    0.1093016E+0004    0.7253517E+0003    0.7331639E+0003    0.7307462E+0003    0.1018635E+0003    0.7206916E+0003    0.5220315E+0003    0.1146792E+0004    0.5583947E+0003    0.6757315E+0003    0.1200160E+0004    0.5484198E+0003    0.5696445E+0003    0.5470993E+0002    0.6926862E+0003    0.8734686E+0003    0.2614716E+0003    0.7219646E+0003    0.1049580E+0004    0.4175145E+0003    0.5296265E+0003    0.8256282E+0003    0.3968991E+0003    0.5899255E+0003    0.9868445E+0003    0.2585078E+0003    0.8325206E+0003    0.8432127E+0003    0.1027351E+0003    0.1041574E+0004    0.1026073E+0004    0.7406287E+0002    0.1048153E+0004    0.7213641E+0003    0.4199273E+0003    0.8897839E+0003    0.6798760E+0003    0.2439571E+0003    0.8505551E+0003    0.5775991E+0003    0.3442516E+0003    0.1021178E+0004    0.5224028E+0003    0.2164833E+0003    0.1174935E+0004    0.6617561E+0003    0.5760459E+0003    0.1182728E+0004    0.8551028E+0003    0.3545967E+0003    0.6784747E+0003    0.1169181E+0004    0.5574450E+0003    0.8323117E+0003    0.1139416E+0004    0.3842452E+0003    0.9967775E+0003    0.1186730E+0004    0.2365884E+0003    0.1096652E+0004    0.1000089E+0004    0.2096297E+0003    0.1220645E+0004    0.1147550E+0004    0.4832944E+0002    0.7053081E+0003    0.1004072E+0003    0.7131923E+0003    0.5622097E+0003    0.1180317E+0004    0.6488657E+0003    0.4918931E+0003    0.7190621E+0002    0.4966999E+0003    0.7158446E+0003    0.1922788E+0003    0.8259562E+0003    0.6585445E+0003    0.3761287E+0003    0.9895757E+0003    0.4916998E+0003    0.1992160E+0003    0.1019437E+0004    0.5694638E+0003    0.3609940E+0003    0.8660712E+0003    0.8360966E+0003    0.2675939E+0003    0.6674432E+0003    0.1009595E+0004    0.3765602E+0003    0.7303902E+0003    0.9549902E+0003    0.2603565E+0003    0.5732182E+0003    0.8226615E+0003    0.4060980E+0003    0.4951851E+0003    0.9804816E+0003    0.1540897E+0003    0.1034713E+0004    0.8768025E+0003    0.5824024E+0002    0.8752055E+0003    0.9970787E+0003    0.2402659E+0003    0.1228253E+0004    0.1120401E+0004    0.2231789E+0003    0.1042214E+0004    0.1155928E+0004    0.3046976E+0002    0.1220139E+0004    0.8502926E+0003    0.4484801E+0003    0.1171076E+0004    0.1170047E+0004    0.5518958E+0003    0.6782139E+0003    0.1168318E+0004    0.3627120E+0003    0.8685200E+0003    0.6308404E+0003    0.6758550E+0002    0.6636937E+0002    0.5363082E+0003    0.1113763E+0004    0.9435052E+0002    0.5305778E+0003    0.6876032E+0002    0.1207351E+0004    0.6951107E+0003    0.1919406E+0003    0.2053326E+0003    0.6810042E+0003    0.3541015E+0003    0.3585371E+0003    0.5000120E+0003    0.2214677E+0003    0.4003935E+0003    0.5768868E+0003    0.3563501E+0003    0.2575993E+0003    0.8055346E+0003    0.2343334E+0003    0.1150810E+0003    0.9937360E+0003    0.3561023E+0003    0.7101601E+0002    0.1030497E+0004    0.9534295E+0002    0.4263252E+0003    0.8968386E+0003    0.7554516E+0002    0.2511159E+0003    0.1166345E+0004    0.1264108E+0002    0.5568318E+0003    0.1123064E+0004    0.2091315E+0003    0.4246586E+0003    0.1163459E+0004    0.5781899E+0003    0.6215652E+0002    0.1133500E+0004    0.4231655E+0003    0.2195355E+0003    0.1212965E+0003    0.7123960E+0003    0.6976233E+0003    0.8053705E+0002    0.5210005E+0003    0.4762946E+0003    0.4622291E+0002    0.8485193E+0003    0.8627071E+0003    0.4297597E+0002    0.9792650E+0003    0.9661772E+0003    0.2508645E+0003    0.8779784E+0003    0.6908415E+0003    0.4363548E+0003    0.1024344E+0004    0.7199936E+0003    0.3516857E+0003    0.8606465E+0003    0.5745446E+0003    0.2031826E+0003    0.1027249E+0004    0.5079623E+0003    0.3623893E+0003    0.6425886E+0003    0.9881860E+0003    0.2139308E+0003    0.7135553E+0003    0.8119429E+0003    0.2442499E+0003    0.5530658E+0003    0.9997788E+0003    0.3985387E+0003    0.5176937E+0003    0.8330410E+0003    0.3869401E+0003    0.8158428E+0003    0.1136395E+0004    0.2583517E+0003    0.1003218E+0004    0.1225804E+0004    0.2157548E+0003    0.1104453E+0004    0.1029815E+0004    0.1121039E+0003    0.1154993E+0004    0.1123364E+0004    0.3462625E+0003    0.1137492E+0004    0.8841659E+0003    0.5109091E+0002    0.6697369E+0003    0.5011228E+0002    0.8734909E+0002    0.5149632E+0003    0.1163798E+0004    0.4288540E+0002    0.8900444E+0003    0.2400400E+0003    0.9968320E+0002    0.1025957E+0004    0.4004771E+0003    0.2080655E+0003    0.8207968E+0003    0.8061294E+0002    0.3674297E+0003    0.9682825E+0003    0.7604414E+0002    0.3498676E+0003    0.6662688E+0003    0.3892963E+0003    0.2121516E+0003    0.7219209E+0003    0.1981010E+0003    0.2635981E+0003    0.5401204E+0003    0.3654354E+0003    0.3979762E+0003    0.5177919E+0003    0.2107491E+0003    0.7078114E+0002    0.1189645E+0004    0.5861947E+0003    0.2812039E+0003    0.1171629E+0004    0.3703825E+0003    0.4333025E+0003    0.1149600E+0004    0.1981350E+0003    0.1023137E+0003    0.1164690E+0003    0.7235599E+0003    0.4736013E+0002    0.2642842E+0003    0.8827199E+0003    0.9670523E+0002    0.3937822E+0003    0.1067013E+0004    0.2568844E+0003    0.2518227E+0003    0.6691953E+0003    0.3930951E+0003    0.4198713E+0003    0.7223199E+0003    0.3793918E+0003    0.2432199E+0003    0.5695256E+0003    0.1676433E+0003    0.4039553E+0003    0.5289684E+0003    0.3556077E+0003    0.1647136E+0002    0.9826957E+0003    0.2496149E+0003    0.1044574E+0003    0.8312735E+0003    0.3720318E+0003    0.2015287E+0003    0.1120692E+0004    0.2567473E+0003    0.3595549E+0003    0.1215659E+0004    0.1160822E+0003    0.1095814E+0003    0.9368265E+0002    0.6096819E+0002    0.2401862E+0003    0.2734920E+0003    0.5616219E+0002    0.3562558E+0003    0.3809792E+0003    0.2711164E+0003    0.2409752E+0003    0.6213903E+0002    0.4085933E+0003    0.4029690E+0003    0.1152083E+0003    0.3392038E+0003    0.7913979E+0002    0.3578024E+0003    0.2043048E+0003    0.1015811E+0003    0.2143435E+0003
 0.6180372E+0003    0.6154515E+0003    0.6202101E+0003    0.6149860E+0003    0.9196429E+0003    0.9362905E+0003    0.9281357E+0003    0.9183786E+0003    0.6240222E+0003    0.9330090E+0003    0.6155390E+0003    0.9377006E+0003    0.1084334E+0004    0.7640091E+0003    0.1092166E+0004    0.7761761E+0003    0.7670526E+0003    0.7842591E+0003    0.7832299E+0003    0.1063956E+0004    0.1088046E+0004    0.1087453E+0004    0.1073391E+0004    0.7796317E+0003    0.6172093E+0003    0.6149218E+0003    0.1240589E+0004    0.6157984E+0003    0.9261126E+0003    0.3077979E+0003    0.9298197E+0003    0.9158326E+0003    0.1241677E+0004    0.9346211E+0003    0.6146674E+0003    0.3113418E+0003    0.1088231E+0004    0.7642404E+0003    0.4618818E+0003    0.7851384E+0003    0.7608228E+0003    0.1594784E+0003    0.7759584E+0003    0.1070855E+0004    0.4635454E+0003    0.1087725E+0004    0.1072216E+0004    0.1584085E+0003    0.6248617E+0003    0.5745372E+0001    0.6261319E+0003    0.6278877E+0003    0.3032112E+0003    0.9413174E+0003    0.9307448E+0003    0.3123670E+0003    0.6232720E+0003    0.9352274E+0003    0.1222212E+0004    0.9317584E+0003    0.1079767E+0004    0.1565933E+0003    0.1085636E+0004    0.7820920E+0003    0.1555690E+0003    0.7742493E+0003    0.7821687E+0003    0.4654713E+0003    0.1091933E+0004    0.1087356E+0004    0.4613823E+0003    0.7804450E+0003    0.6233575E+0003    0.1225526E+0004   -0.2829298E+0001    0.6183696E+0003    0.3101991E+0003    0.3149557E+0003    0.9266130E+0003    0.3062937E+0003    0.6982097E+0001    0.9279064E+0003    0.1226264E+0004    0.3043852E+0003    0.1080301E+0004    0.1516919E+0003    0.4677656E+0003    0.7740033E+0003    0.1529085E+0003    0.1461929E+0003    0.7760527E+0003    0.4655820E+0003    0.4672000E+0003    0.1085976E+0004    0.4568346E+0003    0.1602062E+0003   -0.8588177E+0000    0.6115704E+0003    0.6246636E+0003   -0.3095553E+0001    0.9138823E+0003    0.9305690E+0003    0.3120083E+0003    0.9196690E+0003    0.6169189E+0003    0.3032219E+0003    0.6142252E+0003    0.9357892E+0003    0.4652371E+0003    0.7654832E+0003    0.1086112E+0004    0.1581810E+0003    0.7693624E+0003    0.7705032E+0003    0.1611361E+0003    0.1064179E+0004    0.1092701E+0004    0.4715271E+0003    0.1073838E+0004    0.7798241E+0003    0.1244670E+0004    0.6153077E+0003    0.1242173E+0004    0.4909390E+0001    0.9221081E+0003    0.3036379E+0003    0.3148254E+0003    0.9213462E+0003    0.1243815E+0004    0.3099522E+0003    0.6153427E+0003    0.3149615E+0003    0.4689296E+0003    0.7697103E+0003    0.4641061E+0003    0.1561560E+0003    0.7685986E+0003    0.1580704E+0003    0.1631524E+0003    0.1072556E+0004    0.4651526E+0003    0.4731421E+0003    0.1067337E+0004    0.1594463E+0003    0.1239656E+0004   -0.4451509E+0000    0.6214131E+0003    0.1237149E+0004    0.3014097E+0003    0.9390717E+0003    0.3146758E+0003    0.3049264E+0003    0.6226589E+0003    0.3086160E+0003    0.2560711E+0001    0.9328312E+0003    0.4583756E+0003    0.1521457E+0003    0.1086909E+0004    0.1540628E+0003    0.1497611E+0003    0.7732192E+0003    0.1627152E+0003    0.4534986E+0003    0.1090135E+0004    0.4718886E+0003    0.4560173E+0003    0.7805432E+0003    0.1242143E+0004    0.1219151E+0004    0.1243582E+0004    0.1238237E+0004    0.3077055E+0003    0.3156213E+0003    0.3128557E+0003    0.3031725E+0003    0.5046502E+0001    0.3097539E+0003    0.3350827E+0001    0.3098541E+0003    0.4646278E+0003    0.1565856E+0003    0.4662584E+0003    0.1531912E+0003    0.1510107E+0003    0.1537442E+0003    0.1520650E+0003    0.4562603E+0003    0.4655685E+0003    0.4692338E+0003    0.4529438E+0003    0.1583269E+0003    0.6675956E+0003    0.6700017E+0003    0.6787726E+0003    0.7123400E+0003    0.5232739E+0003    0.5080420E+0003    0.5606136E+0003    0.6714360E+0003    0.5730373E+0003    0.5392812E+0003    0.5183152E+0003    0.7581884E+0003    0.6651790E+0003    0.8546727E+0003    0.8917765E+0003    0.6561020E+0003    0.9832826E+0003    0.9897456E+0003    0.5437346E+0003    0.7996056E+0003    0.1046670E+0004    0.5290887E+0003    0.1033269E+0004    0.8397255E+0003    0.8247696E+0003    0.8225152E+0003    0.7257180E+0003    0.9880936E+0003    0.9464335E+0003    0.6946138E+0003    0.1034193E+0004    0.8189236E+0003    0.5132359E+0003    0.8692312E+0003    0.9414582E+0003    0.5518769E+0003    0.9884822E+0003    0.6716012E+0003    0.9880354E+0003    0.8324657E+0003    0.7386449E+0003    0.8514194E+0003    0.8799193E+0003    0.5666997E+0003    0.9950707E+0003    0.1043065E+0004    0.5123584E+0003    0.8449583E+0003    0.1038750E+0004    0.8227503E+0003    0.1146933E+0004    0.1185550E+0004    0.8536360E+0003    0.9779876E+0003    0.1133756E+0004    0.7067896E+0003    0.1148915E+0004    0.8772693E+0003    0.9469699E+0003    0.1169924E+0004    0.8541965E+0003    0.1105274E+0004    0.1044619E+0004    0.7517283E+0003    0.1124884E+0004    0.1150082E+0004    0.9767923E+0003    0.1167193E+0004    0.8672781E+0003    0.1152190E+0004    0.1028186E+0004    0.8241788E+0003    0.1125574E+0004    0.1125486E+0004    0.7136704E+0003    0.7113605E+0003    0.7073871E+0003    0.1372831E+0003    0.6716633E+0003    0.5506612E+0003    0.1200330E+0004    0.5511170E+0003    0.6702962E+0003    0.1205111E+0004    0.5125643E+0003    0.4925467E+0003    0.8789647E+0002    0.6537776E+0003    0.8655823E+0003    0.2470121E+0003    0.7204977E+0003    0.1019752E+0004    0.4054843E+0003    0.5264310E+0003    0.8359231E+0003    0.4311565E+0003    0.5484320E+0003    0.9680458E+0003    0.2548715E+0003    0.8199710E+0003    0.8008212E+0003    0.8348441E+0002    0.9612252E+0003    0.9717861E+0003    0.6584677E+0002    0.1036214E+0004    0.7104558E+0003    0.4029695E+0003    0.8942747E+0003    0.6739528E+0003    0.2516036E+0003    0.8189693E+0003    0.5112205E+0003    0.3991224E+0003    0.9807181E+0003    0.5496088E+0003    0.2605387E+0003    0.1186395E+0004    0.6721337E+0003    0.5786948E+0003    0.1198688E+0004    0.8564471E+0003    0.3497680E+0003    0.7209778E+0003    0.1098734E+0004    0.5331613E+0003    0.8583332E+0003    0.1185082E+0004    0.3502947E+0003    0.9619209E+0003    0.1160595E+0004    0.2455730E+0003    0.1121474E+0004    0.1008373E+0004    0.2135660E+0003    0.1158186E+0004    0.1112513E+0004    0.1076948E+0003    0.6873383E+0003    0.4751377E+0002    0.6834408E+0003    0.5513705E+0003    0.1199328E+0004    0.6725399E+0003    0.5161840E+0003    0.9558424E+0002    0.5120970E+0003    0.7387245E+0003    0.2233037E+0003    0.8223538E+0003    0.7238998E+0003    0.4133076E+0003    0.1043521E+0004    0.5905858E+0003    0.2431884E+0003    0.9995796E+0003    0.5606117E+0003    0.3603132E+0003    0.9126171E+0003    0.8544395E+0003    0.1849203E+0003    0.7224918E+0003    0.9545795E+0003    0.3688771E+0003    0.6929074E+0003    0.1024738E+0004    0.1978648E+0003    0.5248092E+0003    0.8881664E+0003    0.3577120E+0003    0.5557726E+0003    0.1047535E+0004    0.8838496E+0002    0.1031258E+0004    0.8735467E+0003    0.4514254E+0002    0.8830910E+0003    0.1026254E+0004    0.2033103E+0003    0.1142726E+0004    0.1198581E+0004    0.2351268E+0003    0.9924276E+0003    0.1194791E+0004    0.4917689E+0002    0.1186852E+0004    0.8351778E+0003    0.4089962E+0003    0.1143824E+0004    0.1148206E+0004    0.5103227E+0003    0.7311257E+0003    0.1177795E+0004    0.3381578E+0003    0.8807705E+0003    0.7345820E+0003    0.8822141E+0002    0.9538241E+0002    0.5611491E+0003    0.1168194E+0004    0.4067383E+0002    0.5758902E+0003    0.5991405E+0002    0.1187610E+0004    0.6597333E+0003    0.2336897E+0003    0.2799451E+0003    0.6804818E+0003    0.3509672E+0003    0.3710675E+0003    0.5217754E+0003    0.2066765E+0003    0.4141512E+0003    0.5349229E+0003    0.4320583E+0003    0.2221416E+0003    0.8726682E+0003    0.2536636E+0003    0.6350393E+0002    0.9733233E+0003    0.3566468E+0003    0.6921150E+0002    0.1032307E+0004    0.9266379E+0002    0.4133758E+0003    0.8316980E+0003    0.1124708E+0003    0.2106052E+0003    0.1191652E+0004    0.5327546E+0002    0.5639915E+0003    0.1197823E+0004    0.2398008E+0003    0.3670134E+0003    0.1145398E+0004    0.4990467E+0003    0.1069553E+0003    0.1116100E+0004    0.3822647E+0003    0.2055026E+0003    0.5204622E+0002    0.6573954E+0003    0.6860868E+0003    0.8419028E+0002    0.5007802E+0003    0.5083413E+0003    0.2454841E+0002    0.8816830E+0003    0.8470747E+0003    0.9841460E+0002    0.1009432E+0004    0.1052034E+0004    0.2030440E+0003    0.8014237E+0003    0.6946818E+0003    0.3606961E+0003    0.9835158E+0003    0.6612921E+0003    0.3724579E+0003    0.8739237E+0003    0.5646377E+0003    0.2050885E+0003    0.1025815E+0004    0.5361144E+0003    0.4475787E+0003    0.6865601E+0003    0.1036224E+0004    0.2124796E+0003    0.7393009E+0003    0.8413376E+0003    0.2489506E+0003    0.5535036E+0003    0.9784735E+0003    0.3537423E+0003    0.5710074E+0003    0.8688436E+0003    0.3696992E+0003    0.8808921E+0003    0.1177183E+0004    0.2175491E+0003    0.1018071E+0004    0.1152326E+0004    0.2531718E+0003    0.1171255E+0004    0.9790079E+0003    0.6742331E+0002    0.1178611E+0004    0.1193907E+0004    0.4147118E+0003    0.1130014E+0004    0.8271251E+0003    0.5592003E+0002    0.6488578E+0003    0.6301952E+0002    0.4163808E+0002    0.5456315E+0003    0.1191604E+0004    0.1190192E+0003    0.8311112E+0003    0.2157865E+0003    0.5526470E+0002    0.9759946E+0003    0.3615600E+0003    0.2787002E+0003    0.8528546E+0003    0.5085478E+0002    0.4209270E+0003    0.1024144E+0004    0.9420953E+0002    0.4316695E+0003    0.7085163E+0003    0.4031006E+0003    0.1794251E+0003    0.6954164E+0003    0.2092622E+0003    0.2758832E+0003    0.5681971E+0003    0.3888492E+0003    0.3584999E+0003    0.5523890E+0003    0.2646617E+0003    0.5379427E+0002    0.1163996E+0004    0.5797199E+0003    0.2332066E+0003    0.1113505E+0004    0.4190594E+0003    0.4219677E+0003    0.1123611E+0004    0.2132833E+0003    0.9440251E+0002    0.8498904E+0002    0.7444802E+0003    0.1065548E+0003    0.2082933E+0003    0.8284291E+0003    0.1155696E+0003    0.4138898E+0003    0.1020355E+0004    0.2514529E+0003    0.2678479E+0003    0.6771751E+0003    0.4395445E+0003    0.4174366E+0003    0.7020281E+0003    0.3614919E+0003    0.2406423E+0003    0.5698073E+0003    0.1849824E+0003    0.3887054E+0003    0.5231437E+0003    0.4040966E+0003    0.1000491E+0003    0.1030510E+0004    0.2553038E+0003    0.4394712E+0002    0.8703537E+0003    0.3996266E+0003    0.1846074E+0003    0.1151432E+0004    0.2046892E+0003    0.3891621E+0003    0.1144455E+0004    0.9753713E+0002    0.8667189E+0002    0.1162956E+0003    0.1099005E+0003    0.1976324E+0003    0.2197055E+0003    0.5049067E+0002    0.3790803E+0003    0.3389886E+0003    0.2482393E+0003    0.2507825E+0003    0.4449663E+0002    0.3500303E+0003    0.3559608E+0003    0.7240558E+0002    0.3644168E+0003    0.6421922E+0002    0.3570920E+0003    0.2689489E+0003    0.5066043E+0002    0.2430280E+0003